ITEM: TIMESTEP
3000
ITEM: NUMBER OF CELLS
5000
ITEM: BOX BOUNDS or pp pp
-0.5 0.5
0 0.0002
-0.5 0.5
ITEM: CELLS xc c_1[1] c_1[2] c_2[1] c_2[2] c_2[3] c_3[1] 
-0.4999 280.866 6.55299 7439.05 21 310.463 99.4156 
-0.4991 341.628 5.69332 7451.02 15 274.338 0 
-0.4983 256.445 5.69831 7420.15 20 234.357 100.707 
-0.4975 274.321 3.35253 7394.21 11 326.392 0 
-0.4967 194.5 4.75405 7477.67 22 372.546 76.7031 
-0.4959 306.24 6.46453 7461 19 270.711 0 
-0.4951 223.411 4.21963 7386.43 17 273.745 0 
-0.4943 323.181 6.10402 7460.52 17 346.837 83.3767 
-0.4935 279.805 6.8391 7423.66 22 280.689 0 
-0.4927 288.744 9.62398 7341.48 30 449.34 69.9986 
-0.4919 216.463 5.05038 7343.23 21 292.454 78.0321 
-0.4911 266.392 6.21529 7375.55 21 290.448 78.0321 
-0.4903 221.119 4.66768 7350.08 19 253.808 80.0856 
-0.4895 226.21 5.52911 7328.56 22 212.47 96.5489 
-0.4887 306.726 6.81556 7452.02 20 431.332 100.052 
-0.4879 344.551 8.80446 7400.61 23 319.446 0 
-0.4871 348.933 7.75343 7378.89 20 332.162 0 
-0.4863 288.688 6.41475 7503.69 20 270.744 0 
-0.4855 259.524 4.32504 7462.43 15 341.223 113.351 
-0.4847 279.046 6.82057 7476.12 22 259.418 154.639 
-0.4839 317.868 2.4721 7290.55 7 195.896 0 
-0.4831 213.294 5.4504 7372.84 23 440.768 95.4641 
-0.4823 254.121 7.05833 7378.6 25 273.49 147.987 
-0.4815 236.687 6.04817 7411.26 23 375.963 75.4912 
-0.4807 269.836 5.99586 7337.93 20 446.73 78.8022 
-0.4799 374.159 8.31394 7448.65 20 271.353 157.604 
-0.4791 261.889 7.27408 7372.45 25 450.964 0 
-0.4783 306.078 5.44093 7365.38 16 321.059 0 
-0.4775 178.944 4.37383 7270.27 22 329.595 76.8802 
-0.4767 192.52 4.27787 7422.35 20 212.492 179.752 
-0.4759 330.815 4.41049 7418.07 12 339.38 93.536 
-0.4751 262.327 6.99481 7517.89 24 344.685 74.5338 
-0.4743 281.143 7.49652 7377.87 24 276.256 203.871 
-0.4735 268.699 3.88089 7382.04 13 213.745 0 
-0.4727 285.534 5.39296 7318.13 17 331.061 215.02 
-0.4719 285.604 7.29817 7362.13 23 284.921 75.4912 
-0.4711 373.677 7.88808 7406.58 19 230.966 102.766 
-0.4703 407.419 9.05299 7326.05 20 328.321 79.2785 
-0.4695 302.099 6.04148 7402.21 18 433.606 106.768 
-0.4687 322.102 5.01006 7259.97 14 485.395 177.187 
-0.4679 315.827 5.61424 7298.7 16 454.926 0 
-0.4671 330.902 6.61749 7407.13 18 263.255 81.4807 
-0.4663 303.288 6.73917 7360.13 20 353.221 79.2785 
-0.4655 223.596 5.96206 7455.4 24 385.534 74.6794 
-0.4647 285.403 6.65885 7282.26 21 410.147 0 
-0.4639 265.084 5.59575 7330.7 19 264.643 80.3645 
-0.4631 198.525 4.85243 7398.21 22 385.367 76.8802 
-0.4623 172.818 3.07206 7465.72 16 338.262 0 
-0.4615 309.643 6.88039 7381.42 20 328.826 100.707 
-0.4607 266.406 6.80759 7350.58 23 268.924 75.8112 
-0.4599 277.751 5.55456 7359.17 18 260.088 163.604 
-0.4591 322.367 6.80496 7468.39 19 420.921 102.032 
-0.4583 249.197 4.98353 7390.76 18 340.369 82.4105 
-0.4575 293.645 6.52491 7353.08 20 380.897 79.0455 
-0.4567 344.367 10.3302 7401.89 27 325.415 90.0436 
-0.4559 263.483 5.26921 7456.65 18 366.543 81.8019 
-0.4551 295.369 7.21953 7435.7 22 328.312 153.032 
-0.4543 271.191 8.43635 7396.6 28 315.991 88.8933 
-0.4535 224.583 5.48936 7445.17 22 279.14 76.5158 
-0.4527 167.13 3.528 7285.09 19 308.89 183.131 
-0.4519 262.351 5.82953 7411.74 20 347.272 100.052 
-0.4511 253.759 3.94703 7374.41 14 350.506 0 
-0.4503 209.83 3.26376 7454.34 14 357.269 0 
-0.4495 289.073 3.53282 7429.08 11 440.646 0 
-0.4487 226.031 5.02249 7419.68 20 337.412 178.855 
-0.4479 274.313 5.79057 7410.33 19 296.691 80.0856 
-0.4471 314.662 5.59353 7409.35 16 456.287 170.225 
-0.4463 261.232 7.54608 7415.1 26 287.453 164.174 
-0.4455 324.534 7.21127 7372.2 20 328.621 0 
-0.4447 274.878 7.94025 7387.71 26 301.569 0 
-0.4439 320.237 6.04842 7353.46 17 327.603 0 
-0.4431 264.654 6.46877 7388.56 22 358.619 0 
-0.4423 329.16 5.48554 7384.7 15 482.868 87.5423 
-0.4415 243.397 4.59711 7445.56 17 303.246 83.3767 
-0.4407 275.95 5.51853 7369.99 18 404.809 104.194 
-0.4399 219.298 4.87289 7413.35 20 252.944 79.2785 
-0.4391 379.727 12.2346 7374.46 29 296.975 0 
-0.4383 325.144 7.9473 7421.06 22 236.227 175.202 
-0.4375 242.94 5.39823 7404.18 20 393.941 100.707 
-0.4367 338.895 5.64778 7394.47 15 273.127 259.537 
-0.4359 424.847 7.0802 7379.92 15 321.585 198.637 
-0.4351 268.192 5.95934 7370.72 20 332.535 0 
-0.4343 333.827 5.56332 7354.7 15 327.986 0 
-0.4335 245.776 7.64573 7459.43 28 284.291 71.4918 
-0.4327 266.536 7.40315 7320.49 25 301.602 93.366 
-0.4319 220.761 5.39593 7404.04 22 382.908 76.8802 
-0.4311 296.408 5.92766 7347.68 18 403.099 0 
-0.4303 262.892 5.25741 7408.3 18 247.832 254.543 
-0.4295 240.053 6.40089 7391.17 24 311.177 74.9398 
-0.4287 307.94 6.50041 7461.77 19 232.793 80.3645 
-0.4279 264.529 6.46574 7370.2 22 233.181 97.612 
-0.4271 291.306 5.17834 7355.89 16 166.466 110.269 
-0.4263 258.845 5.46405 7408.12 19 257.972 80.0856 
-0.4255 259.351 4.61029 7445.18 16 398.405 169.359 
-0.4247 287.623 6.39108 7449.24 20 329.019 79.0455 
-0.4239 248.425 6.90011 7352.85 25 255.518 183.416 
-0.4231 313.494 5.57277 7467.66 16 386.916 0 
-0.4223 231.171 3.33885 7432.74 13 419.891 119.07 
-0.4215 239.572 5.58954 7399.49 21 346.458 98.2313 
-0.4207 299.296 5.32037 7439.27 16 293.354 85.9507 
-0.4199 207.669 5.30665 7361.06 23 288.125 75.6561 
-0.4191 287.378 4.78923 7397.7 15 378.827 112.106 
-0.4183 313.577 6.6194 7398.74 19 438.945 80.6333 
-0.4175 176.446 3.92068 7392.08 20 328.659 237.085 
-0.4167 423.721 5.64914 7380.55 12 353.882 0 
-0.4159 216.725 6.74198 7522.5 28 289.456 71.4918 
-0.4151 204.458 4.77029 7380.14 21 303.932 0 
-0.4143 266.299 4.73381 7291.64 16 285.785 109.19 
-0.4135 357.883 5.169 7238.34 13 261.359 143.32 
-0.4127 282.37 10.6664 7378.95 34 340.306 164.077 
-0.4119 363.478 6.05747 7343.25 15 339.414 0 
-0.4111 217.09 4.82382 7422.98 20 342.924 79.0455 
-0.4103 278.801 8.05357 7355.75 26 302.446 90.9094 
-0.4095 202.322 4.27088 7345.8 19 168.327 0 
-0.4087 327.434 6.18435 7509.92 17 265.654 0 
-0.4079 176.413 4.50795 7336.37 23 352.751 217.948 
-0.4071 255.796 7.10485 7326.21 25 249.433 73.7654 
-0.4063 222.407 5.43617 7436.03 22 322.292 77.0444 
-0.4055 276.755 3.68976 7370.28 12 291.64 0 
-0.4047 252.747 6.73935 7385.25 24 353.576 94.4034 
-0.4039 366.621 6.92449 7344.96 17 221.581 0 
-0.4031 271.384 6.93479 7467.59 23 334.004 171.12 
-0.4023 129.156 2.15243 7417.48 15 405.177 348.1 
-0.4015 185.019 4.11119 7415.27 20 285.787 0 
-0.4007 282.103 6.89527 7380.02 22 260.49 76.5158 
-0.3999 273.007 7.5829 7429.1 25 332.596 0 
-0.3991 230.403 5.37562 7449.79 21 371.378 192.991 
-0.3983 313.939 11.5101 7385.45 33 269.125 176.427 
-0.3975 257.747 5.44087 7300.31 19 423.941 80.6333 
-0.3967 281.326 7.18885 7363.25 23 261.239 0 
-0.3959 296.853 6.26637 7442.36 19 342.495 0 
-0.3951 204.725 2.04708 7303.56 9 139.341 0 
-0.3943 201.379 4.02725 7523.52 18 383.989 0 
-0.3935 312.083 8.32153 7373.49 24 315.046 94.4034 
-0.3927 254.071 4.79872 7436.03 17 393.075 108.49 
-0.3919 303.395 5.05616 7375.63 15 401.988 112.106 
-0.3911 276.419 4.91371 7426.61 16 232.594 170.225 
-0.3903 274.453 5.18368 7357.23 17 243.115 0 
-0.3895 164.305 2.37309 7352.98 13 295.502 0 
-0.3887 294.093 7.18834 7461.68 22 283.149 77.0444 
-0.3879 276.031 6.44019 7413.38 21 238.991 194.161 
-0.3871 310.163 7.58112 7412.49 22 392.092 0 
-0.3863 280.249 5.91587 7327.06 19 287.637 0 
-0.3855 335.123 9.3082 7391.83 25 327.811 92.5717 
-0.3847 273.562 8.51009 7343.73 28 247.284 160.987 
-0.3839 205.458 4.56534 7372.57 20 308.562 158.557 
-0.3831 224.572 6.23759 7449.55 25 328.441 185.935 
-0.3823 332.793 9.61323 7435.78 26 396.403 0 
-0.3815 343.458 6.86858 7476.67 18 321.52 162.961 
-0.3807 253.016 6.74654 7410.63 24 226.98 184.583 
-0.3799 248.048 5.51172 7389.2 20 334.007 197.895 
-0.3791 239.642 4.79243 7435.35 18 465.289 81.8019 
-0.3783 235.971 7.34072 7386.7 28 381.892 71.4918 
-0.3775 283.782 5.67517 7415.75 18 286.495 0 
-0.3767 280.195 8.09383 7476.2 26 267.39 145.587 
-0.3759 218.287 2.66773 7397.54 11 419.222 96.5489 
-0.3751 243.748 3.52051 7523.53 13 307.312 0 
-0.3743 258.131 5.1622 7497.03 18 263.011 82.4105 
-0.3735 291.439 8.41866 7455.27 26 288.186 197.616 
-0.3727 327.94 5.82957 7378.38 16 272.574 85.5383 
-0.3719 300.583 6.34512 7421.58 19 331.076 121.603 
-0.3711 333.011 7.39963 7389.37 20 180.2 79.2785 
-0.3703 291.434 5.18061 7394.84 16 321.507 85.5383 
-0.3695 205.954 5.26284 7344.88 23 394.423 75.6561 
-0.3687 357.807 8.74566 7347.07 22 314.267 0 
-0.3679 318.101 7.42174 7356.15 21 309.433 0 
-0.3671 259.274 7.20147 7442.35 25 389.403 166.852 
-0.3663 246.118 6.5626 7516.96 24 260.417 168.07 
-0.3655 275.695 7.65755 7329.65 25 294.997 73.6366 
-0.3647 252.984 5.62139 7382.48 20 316.307 133.899 
-0.3639 289.253 8.35551 7448.08 26 348.874 252.94 
-0.3631 334.182 5.56923 7475.7 15 292.548 0 
-0.3623 251.514 6.70647 7424.4 24 300.953 149.631 
-0.3615 276.836 4.92111 7414.61 16 332.604 0 
-0.3607 250.236 5.83835 7366.96 21 394.615 155.659 
-0.3599 302.253 5.37295 7297.85 16 272.923 170.225 
-0.3591 300.953 7.02166 7384.92 21 387.16 234.046 
-0.3583 325.373 3.97645 7456.22 11 274.925 0 
-0.3575 293.508 7.17404 7299.44 22 328.096 76.8802 
-0.3567 273.423 5.468 7376.46 18 204.162 81.8019 
-0.3559 240.806 3.74556 7470.31 14 342.25 89.1941 
-0.3551 307.648 5.81065 7444.28 17 230.27 0 
-0.3543 180.431 3.40785 7393.81 17 241.961 83.3767 
-0.3535 304.738 10.1571 7364.01 30 330.568 86.7852 
-0.3527 236.018 5.76886 7379.22 22 304.337 76.7031 
-0.3519 198.655 4.8556 7416.48 22 289.822 209.702 
-0.3511 218.353 5.33708 7360.4 22 294.333 0 
-0.3503 274.309 5.7905 7430.45 19 286.267 103.523 
-0.3495 254.793 5.66159 7389.4 20 399.622 100.707 
-0.3487 331.815 7.7417 7334.72 21 276.736 77.6162 
-0.3479 287.097 5.4225 7399.66 17 280.185 0 
-0.3471 248.011 4.9598 7391.3 18 381.047 105.023 
-0.3463 234.451 3.38623 7439.11 13 232.861 0 
-0.3455 276.785 6.15026 7422 20 305.728 79.4976 
-0.3447 291.951 8.10908 7353.51 25 336.694 92.9674 
-0.3439 344.383 8.03493 7365.4 21 313.616 156.787 
-0.3431 388.661 9.068 7441.24 21 326.162 155.232 
-0.3423 403.249 7.61629 7402.35 17 313.07 106.568 
-0.3415 184.387 3.89229 7347.97 19 369.834 0 
-0.3407 252.094 4.76138 7331.86 17 315.753 107.51 
-0.3399 262.401 5.53912 7416.72 19 223.072 160.171 
-0.3391 218.929 4.13499 7425.34 17 265.751 106.568 
-0.3383 276.377 5.83414 7480.71 19 360.684 80.8879 
-0.3375 261.756 3.19897 7361.93 11 294.688 0 
-0.3367 268.473 4.77246 7461.1 16 340.502 0 
-0.3359 232.787 5.43124 7460.46 21 373.095 232.798 
-0.3351 195.831 4.13387 7372.44 19 371.545 80.8879 
-0.3343 179.683 3.59336 7432.66 18 289.636 162.961 
-0.3335 231.622 3.60271 7532.4 14 264.067 0 
-0.3327 226.204 5.02635 7417.66 20 396.881 179.752 
-0.3319 261.065 5.80097 7360.6 20 363.633 158.091 
-0.3311 198.19 5.28462 7445.69 24 307.899 168.646 
-0.3303 356.097 6.33008 7447.9 16 340.506 110.269 
-0.3295 216.543 3.60875 7351.33 15 265.134 0 
-0.3287 281.071 6.55779 7405.9 21 350.133 77.6162 
-0.3279 275.893 6.13045 7407.57 20 331.183 100.707 
-0.3271 266.135 4.7309 7470.49 16 288.869 0 
-0.3263 262.644 5.83605 7307.65 20 354.129 79.0455 
-0.3255 242.976 4.31922 7330.9 16 265.258 193.869 
-0.3247 242.362 4.57757 7359.8 17 326.66 189.573 
-0.3239 274.613 4.2714 7397.45 14 367.741 89.7945 
-0.3231 259.898 6.6413 7408.81 23 345.131 95.9469 
-0.3223 275.011 6.41638 7404.62 21 475.755 147.227 
-0.3215 165.701 2.94554 7343.6 16 318.121 84.6795 
-0.3207 278.223 6.49133 7483.03 21 300.21 77.8293 
-0.3199 272.932 6.36789 7429.7 21 396.523 99.4156 
-0.3191 245.217 3.54173 7511.58 13 408.059 90.9094 
-0.3183 270.719 5.71469 7398.74 19 350.851 80.3645 
-0.3175 239.997 6.66604 7404.23 25 408.81 73.885 
-0.3167 291.5 6.8011 7314.75 21 521.988 0 
-0.3159 336.62 7.47981 7358.15 20 348.276 102.065 
-0.3151 213.863 4.98972 7385.86 21 378.436 155.232 
-0.3143 254.395 5.65276 7346.13 20 299.199 78.8022 
-0.3135 303.58 7.75752 7385.12 23 336.817 95.9469 
-0.3127 183.699 3.67367 7436.79 18 419.611 105.023 
-0.3119 331.859 5.89922 7330.15 16 257.907 85.1125 
-0.3111 249.32 5.26298 7420.61 19 254.51 80.3645 
-0.3103 273.698 4.25717 7410.87 14 363.58 0 
-0.3095 351.422 9.76091 7424.9 25 282.818 0 
-0.3087 306.858 5.11388 7387.8 15 336.568 113.351 
-0.3079 243.982 7.86098 7340.3 29 353.78 141.334 
-0.3071 272.156 3.02371 7533.22 10 341.671 200.105 
-0.3063 255.746 6.53519 7446.73 23 351.141 75.9539 
-0.3055 207.615 5.7666 7430.3 25 351.438 166.852 
-0.3047 292.596 8.45207 7421.83 26 383.873 164.64 
-0.3039 286.81 6.69167 7381.1 21 412.991 175.848 
-0.3031 273.144 6.37283 7452.69 21 255.987 177.448 
-0.3023 189.205 3.36336 7346.93 16 418.527 0 
-0.3015 270.722 5.71477 7455 19 321.628 185.189 
-0.3007 171.703 2.28918 7332.39 12 372.684 93.536 
-0.2999 269.144 6.27951 7464.14 21 224.117 155.232 
-0.2991 312.854 8.34207 7405.5 24 274.066 74.6794 
-0.2983 339.106 6.78156 7416.52 18 257.908 348.583 
-0.2975 368.935 6.9682 7427.32 17 334.586 149.008 
-0.2967 213.074 4.97131 7397.5 21 190.957 77.8293 
-0.2959 253.104 7.5925 7389.72 27 304.232 0 
-0.2951 300.885 5.34862 7302.17 16 283.078 84.6795 
-0.2943 261.537 5.81144 7464.9 20 283.277 237.784 
-0.2935 310.128 6.5466 7281.16 19 215.256 80.6333 
-0.2927 230.131 4.09087 7355.4 16 201.888 85.5383 
-0.2919 280.211 7.47167 7407.28 24 327.948 74.8155 
-0.2911 297.404 4.29548 7322.17 13 331.833 0 
-0.2903 348.749 7.36186 7506.8 19 311.259 203.483 
-0.2895 262.812 6.42376 7457.89 22 348.175 76.7031 
-0.2887 244.638 5.70775 7395.71 21 322.985 77.8293 
-0.2879 250.054 5.27847 7495.76 19 375.484 138.806 
-0.2871 325.644 7.23594 7445.87 20 294.374 119.96 
-0.2863 305.863 7.81585 7422.79 23 234.629 75.6561 
-0.2855 372.387 7.44712 7421.56 18 302.695 81.4807 
-0.2847 297.42 7.6001 7435.7 23 250.482 111.098 
-0.2839 252.971 5.059 7436.18 18 377.91 208.152 
-0.2831 256.295 4.84073 7440.14 17 313.961 0 
-0.2823 199.75 5.77007 7335.55 26 375.787 146.025 
-0.2815 210.454 3.97491 7433.73 17 286.663 167.479 
-0.2807 266.304 7.39671 7405.14 25 188.08 147.531 
-0.2799 215.901 5.75688 7418.48 24 320.295 0 
-0.2791 265.938 5.61378 7366.24 19 301.913 0 
-0.2783 288.535 7.37305 7319.86 23 297.822 75.4912 
-0.2775 287.034 6.378 7320.38 20 292.268 157.604 
-0.2767 274.795 6.10604 7383.01 20 338.949 158.557 
-0.2759 360.451 6.00702 7423.13 15 333.703 0 
-0.2751 225.541 5.51277 7459.4 22 251.762 153.032 
-0.2743 344.227 9.9435 7416.27 26 388.203 72.9075 
-0.2735 370.858 11.5368 7481.85 28 286.627 142.497 
-0.2727 276.294 5.83239 7390.27 19 339.282 80.6333 
-0.2719 257.823 6.58827 7375.34 23 302.74 187.538 
-0.2711 280.785 4.3674 7468.64 14 346.028 89.1941 
-0.2703 214.026 5.23131 7320.75 22 443.409 76.5158 
-0.2695 313.887 5.57975 7437.19 16 341.922 169.359 
-0.2687 261.713 4.94306 7411.15 17 237.66 0 
-0.2679 296.215 6.9111 7437.15 21 288.967 0 
-0.2671 185.691 3.71351 7419.42 18 200.743 104.194 
-0.2663 237.173 8.16863 7425.69 31 294.035 0 
-0.2655 265.171 7.36525 7302.85 25 384.052 121.108 
-0.2647 318.352 9.19608 7401.47 26 402.948 91.267 
-0.2639 246.961 6.03632 7431.91 22 399.409 76.8802 
-0.2631 241.674 8.59214 7410.98 32 388.05 68.7917 
-0.2623 236.656 7.09908 7444.1 27 307.223 181.403 
-0.2615 248.498 6.62607 7315.02 24 392.008 149.068 
-0.2607 322.964 7.53519 7459.45 21 286.144 77.8293 
-0.2599 268.52 8.05492 7368.42 27 357.079 144.385 
-0.2591 275.203 4.58634 7410.67 15 193.94 246.005 
-0.2583 268.548 4.77378 7425.41 16 261.927 169.359 
-0.2575 229.155 5.8557 7395.82 23 320.251 151.622 
-0.2567 244.323 8.14344 7352.17 30 396.799 0 
-0.2559 268.63 5.37215 7374.82 18 510.063 81.4807 
-0.2551 278.184 5.56321 7389.54 18 395.934 163.604 
-0.2543 266.129 5.32215 7389.75 18 249.263 124.63 
-0.2535 264.707 6.76417 7347.02 23 423.075 203.683 
-0.2527 247.09 5.49042 7400.16 20 298.942 78.8022 
-0.2519 183.847 4.08515 7407.31 20 256.004 78.8022 
-0.2511 351.146 7.02234 7376.56 18 308.106 124.63 
-0.2503 369.046 6.15026 7351.39 15 320.587 0 
-0.4993 262.579 6.12634 7513.64 21 251.173 194.161 
-0.4985 262.82 5.83996 7375.54 20 319.193 0 
-0.4977 336.305 9.34104 7410.42 25 331.961 147.77 
-0.4969 258.299 4.30462 7456.49 15 405.297 87.039 
-0.4961 191.371 3.61448 7394.76 17 528.338 0 
-0.4953 253.343 6.19231 7413.8 22 329.293 0 
-0.4945 217.541 4.35045 7348.57 18 327.242 0 
-0.4937 253.611 6.19887 7374.07 22 488.254 77.1923 
-0.4929 308.547 5.82762 7400.97 17 256.24 274.21 
-0.4921 221.685 4.18703 7450.74 17 323.872 83.0049 
-0.4913 240.169 4.80297 7403.64 18 346.996 81.4807 
-0.4905 264.182 6.16372 7441.76 21 265.962 98.8171 
-0.4897 303.324 5.39198 7373.27 16 238.949 111.396 
-0.4889 259.957 7.50925 7431.37 26 300.089 325.953 
-0.4881 313.411 9.05335 7360.25 26 440.141 90.9094 
-0.4873 361.055 7.62163 7491.1 19 224.537 0 
-0.4865 223.502 4.46967 7385.22 18 253.209 0 
-0.4857 321.314 7.13971 7410.85 20 248.981 0 
-0.4849 403.443 10.3094 7388.19 23 406.992 75.8112 
-0.4841 309.679 9.97772 7424.68 29 287.686 87.5334 
-0.4833 280.892 6.86568 7377 22 253.942 0 
-0.4825 196.71 2.84114 7459.74 13 257.291 92.3511 
-0.4817 234.682 4.43252 7482.06 17 280.894 0 
-0.4809 302.793 7.7374 7477.96 23 455.222 325.125 
-0.4801 269.974 6.29886 7336.5 21 375.468 98.8171 
-0.4793 267.276 3.56338 7444.81 12 165.708 123.292 
-0.4785 196.207 3.48783 7484.77 16 308.089 219.08 
-0.4777 298.059 6.95413 7473.39 21 310.745 130.916 
-0.4769 278.789 8.98244 7410.13 29 219.345 159.439 
-0.4761 307.111 6.82412 7443.39 20 269.477 78.8022 
-0.4753 330.705 7.7158 7468.85 21 197.582 100.647 
-0.4745 267.518 5.64712 7429.81 19 316.329 0 
-0.4737 284.347 9.79336 7378.79 31 291.113 86.0498 
-0.4729 222.79 4.70296 7491.69 19 333.309 102.032 
-0.4721 260.904 5.79739 7412.3 20 287.753 0 
-0.4713 308.038 3.42236 7488.67 10 340.27 133.899 
-0.4705 201.3 5.36754 7378.4 24 243.541 109.19 
-0.4697 328.949 9.13672 7460.43 25 307.739 181.049 
-0.4689 293.977 6.53229 7359.67 20 368.458 79.2785 
-0.4681 405.232 8.55419 7481.68 19 268.429 80.3645 
-0.4673 323.421 7.18653 7392.36 20 321.778 100.707 
-0.4665 266.46 7.40105 7382.75 25 376.961 73.885 
-0.4657 255.653 7.66896 7419.94 27 236.141 161.715 
-0.4649 304.056 7.43186 7318.33 22 222.778 0 
-0.4641 268.838 5.67499 7423.24 19 221.235 160.171 
-0.4633 332.4 7.01674 7360.72 19 326.912 183.131 
-0.4625 307.016 5.79871 7406.44 17 345.714 83.7397 
-0.4617 279.71 9.3229 7374.67 30 187.34 87.039 
-0.4609 278.002 5.55958 7387.16 18 266.275 163.604 
-0.4601 281.945 5.63844 7406.93 18 313.2 163.604 
-0.4593 274.978 6.11012 7482.38 20 235.446 79.0455 
-0.4585 369.545 9.03256 7407.47 22 321.164 96.5489 
-0.4577 276.018 7.97319 7514.49 26 362.53 218.991 
-0.4569 253.174 5.62562 7305.5 20 228.016 100.707 
-0.4561 317.694 6.70632 7388.58 19 190.562 0 
-0.4553 258.456 6.03015 7360.7 21 328.738 0 
-0.4545 289.195 4.49822 7411.85 14 304.587 0 
-0.4537 272.485 9.08208 7412.26 30 283.861 226.701 
-0.4529 327.673 6.55292 7334.94 18 188.075 162.961 
-0.4521 238.122 5.0266 7512.46 19 314.662 0 
-0.4513 256.172 6.26146 7362.4 22 220.287 97.612 
-0.4505 245.141 6.26419 7462.26 23 423.249 75.8112 
-0.4497 306.617 5.10986 7398.36 15 305.512 87.5423 
-0.4489 311.9 5.89095 7338.18 17 280.686 109.508 
-0.4481 315.125 7.70242 7467.35 22 326.917 97.612 
-0.4473 284.284 4.42182 7421.58 14 333.075 206.018 
-0.4465 238.226 5.29347 7383.73 20 309.515 0 
-0.4457 211.103 3.28356 7405.06 14 351.255 89.1941 
-0.4449 235.557 4.97246 7453.96 19 383.81 102.032 
-0.4441 330.667 12.4908 7369.74 34 357.842 135.247 
-0.4433 236.678 4.47022 7418.24 17 251.749 0 
-0.4425 199.086 5.52972 7399.48 25 308.26 0 
-0.4417 365.754 9.34625 7354.81 23 355.862 0 
-0.4409 228.942 4.06973 7386.09 16 331.259 0 
-0.4401 300.552 5.3427 7349.66 16 274.133 84.6795 
-0.4393 356.56 4.75373 7344.77 12 261.71 94.4034 
-0.4385 357.495 7.94366 7348.82 20 349.131 158.557 
-0.4377 221.829 5.66849 7341.49 23 309.76 0 
-0.4369 282.908 5.65769 7463.37 18 429.544 208.388 
-0.4361 231.526 3.08676 7411.46 12 196.5 187.072 
-0.4353 201.85 1.79407 7521.54 8 392.272 109.19 
-0.4345 322.53 10.0334 7457.25 28 350.803 88.5933 
-0.4337 338.286 9.02021 7448.47 24 400.987 169.219 
-0.4329 209.468 3.72356 7346.5 16 356.401 193.869 
-0.4321 231.783 6.18038 7336.19 24 259.351 74.6794 
-0.4313 268.973 3.88484 7356.26 13 287.777 90.9094 
-0.4305 283.579 6.93135 7435.28 22 395.496 195.224 
-0.4297 245.14 6.80889 7395.33 25 357.961 73.9933 
-0.4289 296.73 4.28575 7365.08 13 250.734 91.6271 
-0.4281 352.312 7.04566 7410.13 18 384.944 81.4807 
-0.4273 256.696 5.70389 7369.99 20 332.237 79.0455 
-0.4265 307.14 5.45982 7546.03 16 334.231 0 
-0.4257 273.482 6.07688 7354.33 20 424.382 79.2785 
-0.4249 337.011 10.8584 7443.65 29 332.538 87.8093 
-0.4241 265.477 4.1293 7391.1 14 440.061 0 
-0.4233 218.108 4.36179 7310.06 18 243.259 81.8019 
-0.4225 190.215 4.01532 7322.65 19 280.724 0 
-0.4217 274.169 5.17832 7413.81 17 304.118 190.887 
-0.4209 231.494 5.40108 7354.28 21 350.314 0 
-0.4201 310.327 6.20602 7423.5 18 271.833 348.583 
-0.4193 274.636 10.0691 7390.3 33 266.282 193.798 
-0.4185 233.555 3.11381 7453.42 12 366.836 190.576 
-0.4177 303.136 6.06221 7443.23 18 287.889 144.55 
-0.4169 270.235 7.80614 7398.1 26 265.811 146.025 
-0.4161 239.125 5.57911 7457.53 21 368.953 155.608 
-0.4153 355.24 9.47227 7426.32 24 324.552 202.726 
-0.4145 312.048 9.70734 7420.76 28 366.165 90.0921 
-0.4137 288.836 5.45533 7500.61 17 183.549 168.123 
-0.4129 204.043 4.30721 7416.93 19 348.861 80.3645 
-0.4121 263.749 5.27454 7321.14 18 250.918 208.152 
-0.4113 284.989 8.23234 7380.86 26 334.028 145.815 
-0.4105 222.836 4.45635 7394.54 18 393.706 0 
-0.4097 291.68 5.50905 7408.6 17 203.632 83.3767 
-0.4089 202.665 4.95362 7395.87 22 366.929 153.711 
-0.4081 197.112 4.81789 7360.66 22 321.69 76.5158 
-0.4073 216.407 5.28952 7283.28 22 293.461 153.76 
-0.4065 354.791 13.7963 7426.57 35 235.472 67.0193 
-0.4057 188.658 3.14403 7286.22 15 261.145 0 
-0.4049 333.205 7.77415 7389.09 21 361.191 98.8171 
-0.4041 231.549 3.60157 7449.13 14 226.799 115.375 
-0.4033 335.314 6.70572 7396.46 18 260.997 0 
-0.4025 275.171 6.42011 7357.05 21 411.365 177.448 
-0.4017 223.263 5.45709 7381.52 22 228.265 228.245 
-0.4009 156.79 1.91616 7271.71 11 571.929 0 
-0.4001 414.996 9.68244 7488.17 21 445.111 197.634 
-0.3993 342.793 8.37868 7428.99 22 248.238 0 
-0.3985 248.002 5.51071 7303.46 20 344.831 78.8022 
-0.3977 209.627 6.52118 7283.47 28 260.006 71.4918 
-0.3969 258.655 7.18425 7477.85 25 299.8 165.816 
-0.3961 244.667 5.43659 7417.87 20 336.385 158.091 
-0.3953 214.888 4.7749 7456.95 20 289.546 180.656 
-0.3945 368.287 13.0936 7389.78 32 342.525 291.227 
-0.3937 272.595 5.75431 7334.4 19 419.073 161.723 
-0.3929 361.842 9.64832 7413.08 24 289.309 169.219 
-0.3921 323.713 8.99129 7428.01 25 268.125 73.7654 
-0.3913 227.305 7.32365 7471.9 29 311.415 87.8093 
-0.3905 324.61 6.49167 7278.78 18 243.327 82.1134 
-0.3897 243.295 5.67641 7296.65 21 214.876 78.3935 
-0.3889 244.29 4.8854 7478.15 18 291.744 81.4807 
-0.3881 253.062 5.62313 7453.29 20 323.46 0 
-0.3873 267.288 3.26658 7422.34 11 305.01 98.7099 
-0.3865 380.574 5.91954 7455.92 14 453.479 140.616 
-0.3857 230.58 4.35504 7388.86 17 326.181 190.887 
-0.3849 292.195 5.84342 7471.93 18 330.617 163.604 
-0.3841 314.578 9.08705 7427.13 26 289.514 183.254 
-0.3833 367.971 11.0382 7402.97 27 397.998 104.194 
-0.3825 297.144 6.60265 7470.98 20 413.335 78.8022 
-0.3817 379.893 12.24 7440.11 29 225.445 70.5384 
-0.3809 262.17 5.82551 7319.65 20 237.934 0 
-0.3801 231.707 5.40604 7375.28 21 315.477 99.4156 
-0.3793 339.661 10.189 7358.73 27 303.783 0 
-0.3785 283.122 5.66196 7426.3 18 350.639 288.181 
-0.3777 257.108 3.71347 7368.53 13 414.939 0 
-0.3769 211.251 5.3982 7383.57 23 296.849 75.6561 
-0.3761 251.141 5.85947 7391.44 21 317.19 0 
-0.3753 338.541 8.27476 7419.8 22 281.22 0 
-0.3745 215.271 6.21843 7393.7 26 369.696 73.0127 
-0.3737 205.793 3.4296 7295.08 15 298.719 200.39 
-0.3729 290.225 5.15912 7336.67 16 326.236 0 
-0.3721 270.013 8.3997 7418.28 28 277.664 177.187 
-0.3713 250.82 5.85199 7354.26 21 343.5 78.0321 
-0.3705 325.989 5.07051 7408.69 14 328.74 88.5933 
-0.3697 306.59 5.10941 7435.8 15 442.06 198.637 
-0.3689 268.496 7.4576 7476.09 25 234.038 92.9674 
-0.3681 256.459 6.26849 7333.71 22 367.502 0 
-0.3673 258.333 8.32335 7353.11 29 299.55 141.609 
-0.3665 243.174 6.75428 7375.74 25 394.229 73.7654 
-0.3657 332.196 9.96504 7444.42 27 246.003 72.4021 
-0.3649 187.442 3.74853 7385.77 18 277.02 0 
-0.3641 268.99 4.78165 7508.14 16 277.062 193.869 
-0.3633 277.674 6.78703 7423.52 22 429.702 97.612 
-0.3625 180.71 3.6139 7287.56 18 322.807 0 
-0.3617 173.831 1.54503 7473.95 8 218.533 0 
-0.3609 360.2 8.40396 7433.9 21 342.275 77.8293 
-0.3601 252.289 6.44686 7350.94 23 310.472 75.4912 
-0.3593 270.694 4.51119 7348.8 15 490.772 133.899 
-0.3585 216.136 5.04275 7349.8 21 310.164 98.2313 
-0.3577 193.31 3.86587 7375.55 18 417.947 0 
-0.3569 191.836 4.04954 7476.09 19 301.37 80.8879 
-0.3561 305.549 8.82624 7394.37 26 251.24 219.274 
-0.3553 263.764 3.8096 7479.65 13 253.467 0 
-0.3545 167.447 2.04641 7365 11 304.096 0 
-0.3537 285.681 5.39574 7308.74 17 277.6 166.01 
-0.3529 188.911 4.82732 7331.99 23 266.062 171.12 
-0.3521 310.474 6.20896 7551.15 18 255.221 81.8019 
-0.3513 255.589 7.0991 7319.92 25 481.538 108.734 
-0.3505 312.189 5.20272 7349.36 15 182.733 0 
-0.3497 185.022 3.70014 7331.5 18 366.679 185.674 
-0.3489 247.655 5.50298 7331.84 20 246.55 78.8022 
-0.3481 310.842 7.59771 7427.2 22 399.118 153.76 
-0.3473 286.716 3.82257 7429.63 12 261.475 95.2879 
-0.3465 231.288 3.85448 7475.65 15 406.853 175.085 
-0.3457 348.236 10.8331 7360.97 28 337.581 175.775 
-0.3449 270.186 7.50454 7369.23 25 431.048 0 
-0.3441 246.092 7.92898 7454.84 29 316.291 190.385 
-0.3433 260.716 4.92422 7381.72 17 370.628 254.284 
-0.3425 167.404 3.71978 7380.01 20 377.855 79.0455 
-0.3417 254.26 2.2599 7406.67 8 305.606 0 
-0.3409 243.11 4.5917 7415.15 17 321.485 0 
-0.3401 251.54 6.14824 7413.78 22 284.361 0 
-0.3393 259.339 8.06764 7360.82 28 273.555 178.388 
-0.3385 190.246 4.22734 7459.06 20 299.662 178.855 
-0.3377 321.205 8.56476 7446.56 24 308.249 74.6794 
-0.3369 275.311 4.89402 7535.69 16 304.774 85.5383 
-0.3361 334.041 6.30913 7369.64 17 311.419 83.0049 
-0.3353 334.693 12.6429 7449.52 34 325.93 83.1916 
-0.3345 212.285 2.59438 7320.51 11 500.161 96.5489 
-0.3337 254.186 7.90736 7448.53 28 257.36 71.4199 
-0.3329 302.018 5.36875 7401.87 16 264.036 0 
-0.3321 249.308 6.37067 7402.01 23 398.106 151.312 
-0.3313 294.314 7.52073 7438.45 23 321.078 151.312 
-0.3305 198.231 3.52381 7298.77 16 167.434 129.977 
-0.3297 290.249 6.77191 7415.5 21 263.058 77.8293 
-0.3289 245.694 5.73238 7354.73 21 257.908 0 
-0.3281 348.83 6.97601 7394.18 18 315.97 164.227 
-0.3273 333.262 8.88626 7413.71 24 425.879 218.256 
-0.3265 242.976 6.74876 7393.18 25 258.053 147.273 
-0.3257 242.767 5.39436 7373.75 20 373.849 100.052 
-0.3249 270.583 6.6137 7363.04 22 327.571 76.8802 
-0.3241 252.217 5.04391 7312.54 18 427.224 81.8019 
-0.3233 316.847 7.04046 7470.97 20 418.51 200.105 
-0.3225 231.494 3.60072 7238.68 14 428.624 89.1941 
-0.3217 261.691 8.14083 7498.52 28 313.823 71.3383 
-0.3209 293.114 7.49008 7402.64 23 330.86 95.4641 
-0.3201 393.414 8.30472 7418.46 19 369.626 160.729 
-0.3193 180.59 3.41086 7307.51 17 378.227 0 
-0.3185 145.059 2.25628 7331.18 14 265.666 354.316 
-0.3177 179.903 2.39851 7360.82 12 366.73 219.728 
-0.3169 381.444 7.62824 7356.47 18 426.152 0 
-0.3161 237.917 5.81527 7382.32 22 240.116 173.065 
-0.3153 252.616 3.36793 7352.97 12 398.698 0 
-0.3145 260.136 3.46819 7451.56 12 439.344 0 
-0.3137 205.898 5.26141 7414.22 23 434.208 171.12 
-0.3129 344.291 6.12023 7406.54 16 272.534 85.1125 
-0.3121 204.649 3.41053 7382.69 15 223.352 0 
-0.3113 308.034 5.81793 7364.29 17 358.387 213.32 
-0.3105 351.936 7.82014 7406.43 20 294.173 179.752 
-0.3097 345.602 9.59926 7425.08 25 315.895 73.9933 
-0.3089 235.365 4.4454 7398.38 17 357.861 0 
-0.3081 344.25 11.8565 7367.58 31 312.754 69.2875 
-0.3073 259.818 8.37121 7408.9 29 430.417 70.6898 
-0.3065 315.961 9.12701 7444.13 26 372.437 224.821 
-0.3057 210.016 5.13329 7497.23 22 346.996 0 
-0.3049 254.099 4.23463 7337.8 15 406.136 87.039 
-0.3041 258.654 6.89686 7395.93 24 277.996 93.967 
-0.3033 337.054 4.1192 7392.16 11 237.493 0 
-0.3025 238.541 5.03544 7391.85 19 333.02 322.481 
-0.3017 312.061 7.28082 7307.26 21 319.927 0 
-0.3009 255.343 7.09226 7419.73 25 293.644 214.593 
-0.3001 231.324 3.85508 7441.96 15 396.09 224.213 
-0.2993 257.59 5.72375 7384.78 20 324.109 100.707 
-0.2985 295.181 6.23108 7392.47 19 344.516 121.603 
-0.2977 301.272 8.36797 7435.03 25 351.817 108.734 
-0.2969 188.549 5.02756 7500 24 317.347 168.646 
-0.2961 252.899 7.8673 7367.04 28 263.98 192.95 
-0.2953 377.162 8.38068 7403.47 20 260.043 102.767 
-0.2945 249.895 5.55275 7381.69 20 413.788 0 
-0.2937 229.032 5.34364 7341.62 21 211.782 0 
-0.2929 194.528 3.89023 7417.51 18 367.228 105.881 
-0.2921 233.803 7.01349 7282.52 27 286.549 162.565 
-0.2913 319.521 5.3249 7345.31 15 214.372 222.924 
-0.2905 197.694 1.75714 7351.94 8 374.927 109.19 
-0.2897 304.007 7.09291 7401.69 21 496.88 132.246 
-0.2889 281.269 6.56239 7331.03 21 290.077 176.646 
-0.2881 282.407 5.96142 7352.95 19 339.341 80.8879 
-0.2873 339.15 5.65204 7234.24 15 374.357 87.5423 
-0.2865 226.701 5.28924 7304.86 21 274.35 78.0321 
-0.2857 193.882 4.30812 7397.5 20 317.137 79.4976 
-0.2849 330.127 10.2697 7386.99 28 205.903 103.238 
-0.2841 255.446 6.52751 7366.15 23 299.868 95.4641 
-0.2833 203.935 4.98466 7457.83 22 350.163 193.098 
-0.2825 213.389 4.5045 7414.08 19 260.048 161.267 
-0.2817 274.294 6.09492 7473.29 20 270.09 157.604 
-0.2809 231.922 5.1534 7340.07 20 426.416 118.849 
-0.2801 253.568 3.66234 7459.42 13 233.973 183.254 
-0.2793 293.712 2.93687 7362.2 9 242.037 105.881 
-0.2785 225.168 5.75381 7339.6 23 337.022 152.163 
-0.2777 216.476 6.01273 7463.29 25 337.591 0 
-0.2769 266.64 7.7023 7457.09 26 226.741 72.9075 
-0.2761 225.275 4.50512 7425.56 18 275.25 106.768 
-0.2753 238.656 4.77271 7420.51 18 281.055 82.1134 
-0.2745 246.957 5.76185 7349.49 21 330.689 100.026 
-0.2737 310.55 7.24556 7405.11 21 456.415 98.8171 
-0.2729 441.124 6.37126 7327.84 13 152.79 238.14 