ITEM: TIMESTEP
17000
ITEM: NUMBER OF CELLS
5000
ITEM: BOX BOUNDS or pp pp
-0.5 0.5
0 0.0002
-0.5 0.5
ITEM: CELLS xc c_1[1] c_1[2] c_2[1] c_2[2] c_2[3] c_3[1] 
-0.4999 411.531 8.22993 7466.43 18 286.17 105.023 
-0.4991 325.128 8.30814 7443.38 23 263.762 75.8112 
-0.4983 289.168 5.14033 7379.5 16 353.036 304.563 
-0.4975 259.372 5.76333 7497.23 20 199.323 158.04 
-0.4967 321.578 6.7883 7357.47 19 377.539 160.171 
-0.4959 178.929 4.57225 7397.14 23 306.865 75.6561 
-0.4951 148.1 2.63267 7412.81 16 222.635 216.817 
-0.4943 228.831 4.57624 7387.54 18 302.641 81.4807 
-0.4935 346.58 7.70114 7393.78 20 280.371 101.378 
-0.4927 232.997 4.40069 7433.03 17 374.804 83.0049 
-0.4919 327.254 8.72606 7417.95 24 203.181 149.068 
-0.4911 386.38 11.1612 7295.45 26 318.857 183.254 
-0.4903 590.398 3.93566 7486.91 6 449.333 0 
-0.4895 256.536 5.41531 7457.32 19 315.715 80.3645 
-0.4887 281.103 7.18313 7336.19 23 286.567 75.4912 
-0.4879 291.757 5.51051 7413.45 17 297.466 83.0049 
-0.4871 273.357 4.85927 7314.37 16 289.855 196.935 
-0.4863 313.251 7.30858 7409.01 21 243.42 177.448 
-0.4855 353.48 8.24718 7393.52 21 183.109 77.6162 
-0.4847 266.143 6.50516 7430.26 22 340.902 76.7031 
-0.4839 294.657 5.56527 7403.32 17 266.085 83.3767 
-0.4831 263.301 5.85066 7502.88 20 325.378 79.0455 
-0.4823 350.023 6.22211 7397.57 16 362.613 193.869 
-0.4815 316.215 7.37773 7464.65 21 363.784 99.4156 
-0.4807 323.673 7.91136 7395.18 22 326.642 76.7031 
-0.4799 313.573 9.05802 7334.19 26 377.637 73.1891 
-0.4791 239.706 6.39163 7402.91 24 271.632 149.359 
-0.4783 281.987 6.26587 7475.06 20 395.186 157.604 
-0.4775 303.675 9.10948 7385.05 27 257.769 178.815 
-0.4767 180.15 3.60269 7364.77 18 314.346 81.8019 
-0.4759 231.835 4.37874 7459.53 17 278.453 0 
-0.4751 314.697 7.34231 7341.1 21 336 0 
-0.4743 246.036 4.10026 7389.81 15 297.474 0 
-0.4735 366.51 5.70079 7444.57 14 162.029 203.968 
-0.4727 415.118 7.37926 7503.25 16 376.354 84.6795 
-0.4719 380.323 9.29601 7349.53 22 395.014 153.032 
-0.4711 236.92 5.00122 7388.77 19 386.206 0 
-0.4703 295.232 5.90414 7524.47 18 315.935 81.4807 
-0.4695 285.1 6.01827 7463.35 19 340.983 80.3645 
-0.4687 406.596 11.7451 7409.55 26 352.705 107.59 
-0.4679 238.983 4.24823 7401.46 16 279.787 85.1125 
-0.4671 232.572 4.65105 7452.9 18 379.865 162.961 
-0.4663 276.532 6.75912 7461.1 22 298.374 206.079 
-0.4655 226.805 5.03968 7416.77 20 295.953 79.2785 
-0.4647 325.992 8.33021 7403.49 23 366.044 75.9539 
-0.4639 285.092 7.91855 7334.49 25 214.306 92.5717 
-0.4631 323.512 8.62626 7459.8 24 325.344 169.784 
-0.4623 385.751 9.0001 7392.67 21 282.425 100.026 
-0.4615 168.14 3.92294 7369.2 21 270.693 77.8293 
-0.4607 275.138 6.41935 7376.47 21 292.301 176.646 
-0.4599 227.794 5.56783 7406.78 22 337.612 0 
-0.4591 278.99 6.50923 7389.54 21 209.65 0 
-0.4583 354.928 7.49229 7280.93 19 262.072 122.85 
-0.4575 233.849 5.45602 7405.92 21 339.453 98.8171 
-0.4567 249.231 7.1994 7399.4 26 379.933 72.9075 
-0.4559 296.357 4.60961 7413.69 14 383.206 0 
-0.4551 221.968 5.17883 7356.62 21 286.12 155.659 
-0.4543 362.047 6.43586 7535.88 16 356.241 0 
-0.4535 372.649 10.3505 7425.19 25 405.199 73.885 
-0.4527 319.982 7.82113 7374.83 22 379.032 76.8802 
-0.4519 254.288 4.23778 7335.87 15 366.907 0 
-0.4511 241.662 3.49038 7403.85 13 252.979 0 
-0.4503 287.803 7.67411 7355.13 24 284.422 183.724 
-0.4495 197.473 3.94912 7330.55 18 310.608 163.604 
-0.4487 312.696 5.90599 7411.43 17 223.71 83.3767 
-0.4479 296.974 6.59888 7425.08 20 238.208 79.0455 
-0.4471 308.348 8.5645 7395.79 25 434.046 108.734 
-0.4463 308.745 6.86044 7406.93 20 285.61 157.604 
-0.4455 260.254 5.49379 7412.62 19 260.592 182.117 
-0.4447 351.965 10.167 7447.52 26 386.512 146.511 
-0.4439 368.73 7.78364 7281.9 19 406.285 183.131 
-0.4431 229.838 4.08566 7354.1 16 248.809 218.38 
-0.4423 294.609 8.18291 7402.2 25 324.297 167.359 
-0.4415 323.514 7.18861 7420.44 20 404.042 157.604 
-0.4407 222.856 4.95195 7487.63 20 339.139 79.0455 
-0.4399 335.213 8.19341 7423 22 317.188 76.7031 
-0.4391 257.392 6.86321 7402.5 24 300.755 0 
-0.4383 340.933 7.19688 7319.77 19 469.119 80.6333 
-0.4375 307.249 7.16853 7387.39 21 266.252 175.848 
-0.4367 335.26 8.19455 7401.74 22 424.52 76.7031 
-0.4359 221.162 5.65145 7380.96 23 334.364 190.928 
-0.4351 344.823 4.59725 7321.66 12 542.326 219.728 
-0.4343 413.015 7.34187 7406.74 16 358.444 0 
-0.4335 237.215 3.42616 7383.89 13 376.711 92.3511 
-0.4327 212.016 4.00441 7355.74 17 230.508 189.573 
-0.4319 239.935 5.33144 7371.5 20 479.839 230.006 
-0.4311 178.249 2.97057 7492.35 15 263.513 0 
-0.4303 255.185 5.38679 7391.38 19 267.102 104.301 
-0.4295 330.942 11.0305 7427.78 30 324.389 87.2916 
-0.4287 303.516 6.40704 7438.8 19 343.575 0 
-0.4279 249.972 3.61041 7464.05 13 501.494 183.254 
-0.4271 274.672 7.93431 7435.72 26 450.614 164.64 
-0.4263 165.792 2.57877 7423.04 14 322.887 0 
-0.4255 263.631 5.27218 7542.27 18 273.271 104.194 
-0.4247 298.907 4.98137 7359.06 15 390.699 0 
-0.4239 319.747 4.61819 7425.57 13 211.071 92.3511 
-0.4231 215.388 3.1109 7332.41 13 225.658 0 
-0.4223 250.489 3.33958 7393.75 12 301.38 266.598 
-0.4215 281.092 5.30907 7554.83 17 203.083 0 
-0.4207 293.218 5.5381 7428.44 17 427.936 83.3767 
-0.4199 210.145 5.13646 7385.32 22 441.277 76.7031 
-0.4191 284.076 7.89034 7483.29 25 386.334 200.636 
-0.4183 215.947 5.75811 7488.82 24 241.517 74.8155 
-0.4175 235.792 4.45347 7351.31 17 350.651 0 
-0.4167 216.907 4.33778 7405.65 18 235.319 211.762 
-0.4159 253.351 5.62955 7357.89 20 217.623 0 
-0.4151 286.047 6.35608 7375.82 20 314.286 79.0455 
-0.4143 227.81 3.54341 7435.06 14 295.272 206.018 
-0.4135 322.477 8.24038 7412.61 23 406.859 94.9884 
-0.4127 255.328 5.67349 7434.06 20 429.868 178.855 
-0.4119 202.105 5.61356 7415.89 25 498.073 147.531 
-0.4111 229.94 5.36482 7345.18 21 336.707 78.2215 
-0.4103 247.516 5.4999 7363.79 20 364.219 157.604 
-0.4095 288.464 8.33271 7377 26 303.767 106.962 
-0.4087 174.533 3.68427 7428.83 19 403.57 80.0856 
-0.4079 228.721 3.04935 7341.31 12 207.106 0 
-0.4071 224.011 3.48432 7404.03 14 153.875 178.331 
-0.4063 287.213 7.97748 7477.08 25 312.397 147.273 
-0.4055 257.985 6.01916 7399.65 21 305.147 176.646 
-0.4047 330.633 6.97944 7421.59 19 300.568 102.766 
-0.4039 250.71 8.07775 7407.94 29 321.161 141.38 
-0.4031 314.948 7.34816 7468.78 21 359.993 0 
-0.4023 248.984 4.97927 7334.77 18 243.247 81.8019 
-0.4015 279.408 5.27726 7395.18 17 247.84 0 
-0.4007 288.762 6.09558 7372.33 19 319.631 80.3645 
-0.3999 299.687 5.66028 7458.77 17 312.43 84.4158 
-0.3991 295.703 5.91356 7470.69 18 357.25 186.825 
-0.3983 236.582 6.30832 7415.9 24 349.992 94.4034 
-0.3975 223.259 4.46482 7371.46 18 218.765 204.773 
-0.3967 273.875 4.25992 7372.88 14 430.9 89.7945 
-0.3959 170.252 3.78306 7550.16 20 283.127 158.091 
-0.3951 316.227 5.62134 7458.66 16 290.203 169.359 
-0.3943 318.178 7.42353 7465.14 21 402.102 155.659 
-0.3935 379.075 11.3713 7375.75 27 358.44 144.645 
-0.3927 315.509 5.60858 7500.78 16 145.014 0 
-0.3919 235.171 3.39664 7379.3 13 252.417 0 
-0.3911 307.92 8.21052 7342.96 24 203.143 0 
-0.3903 246.019 5.46664 7343.4 20 370.495 316.131 
-0.3895 175.548 3.70571 7377.86 19 170.962 0 
-0.3887 336.974 7.86207 7384.08 21 312.007 175.848 
-0.3879 247.34 5.49598 7407.05 20 355.267 78.8022 
-0.3871 243.444 7.57318 7465.89 28 409.684 187.427 
-0.3863 264.535 5.87807 7442.17 20 345.428 158.557 
-0.3855 204.95 5.46488 7375.2 24 355.471 0 
-0.3847 307.979 9.23861 7382.09 27 402.228 144.154 
-0.3839 171.078 3.42127 7427.61 18 384.829 81.8019 
-0.3831 247.602 4.40144 7484.56 16 452.699 171.077 
-0.3823 233.946 6.75789 7373.16 26 315.895 73.0127 
-0.3815 324.814 8.66098 7330.34 24 227.63 149.88 
-0.3807 377.153 11.7327 7398.48 28 285.431 88.8933 
-0.3799 270.951 5.11754 7471.41 17 511.078 0 
-0.3791 434.369 13.03 7448.91 27 298.266 161.715 
-0.3783 279.83 5.28523 7389.63 17 466.185 190.887 
-0.3775 220.834 6.62448 7425.01 27 346.998 177.499 
-0.3767 293.853 6.52952 7375.11 20 436.927 180.656 
-0.3759 305.221 7.79944 7359.98 23 467.042 150.982 
-0.3751 279.954 5.28759 7314.94 17 274.026 0 
-0.3743 269.244 9.27317 7398 31 294.557 86.0498 
-0.3735 175.886 3.90825 7355.16 20 257.958 197.895 
-0.3727 214.491 2.85964 7465.23 12 226.976 0 
-0.3719 293.187 9.44634 7401.68 29 365.311 158.775 
-0.3711 339.522 4.9038 7402.78 13 300.175 91.6271 
-0.3703 291.865 3.8912 7440.42 12 189.435 0 
-0.3695 254.302 5.36815 7314.11 19 409.335 222.445 
-0.3687 273.52 4.55829 7384.05 15 349.37 114.66 
-0.3679 195.188 4.33715 7454.89 20 241.315 100.707 
-0.3671 268.645 5.9694 7347.72 20 322.845 78.8022 
-0.3663 311.621 7.27055 7409.2 21 355.739 99.4156 
-0.3655 282.893 7.22889 7449.44 23 304.483 170.48 
-0.3647 246.01 6.01307 7424.96 22 303.128 76.7031 
-0.3639 304.233 6.42216 7422.97 19 362.255 184.156 
-0.3631 252.587 5.33196 7423.45 19 411.471 80.6333 
-0.3623 258.489 5.16935 7352.66 18 293.157 0 
-0.3615 367.4 8.57194 7342.8 21 297.79 99.4156 
-0.3607 366.791 6.52018 7363.59 16 293.932 84.6795 
-0.3599 237.446 4.48471 7381.92 17 325.143 0 
-0.3591 237.929 4.22949 7408.78 16 313.685 169.359 
-0.3583 404.684 8.54262 7427.14 19 253.964 183.131 
-0.3575 184.605 3.48669 7431.94 17 346.561 0 
-0.3567 338.287 6.76518 7445.44 18 308.42 0 
-0.3559 322.525 6.8083 7402.31 19 186.273 0 
-0.3551 262.35 4.95509 7380.1 17 283.833 83.3767 
-0.3543 242.529 4.31126 7346.7 16 384.624 111.396 
-0.3535 323.218 8.25933 7404.55 23 351.05 171.12 
-0.3527 266.54 5.92262 7365.68 20 413.111 79.4976 
-0.3519 242.436 2.69351 7470.74 10 491.367 0 
-0.3511 150.017 2.50008 7448.31 15 347.527 87.039 
-0.3503 296.299 7.24227 7357.4 22 277.216 97.612 
-0.3495 339.409 10.5585 7372.8 28 330.977 103.238 
-0.3487 302.658 10.0878 7380.48 30 317.45 0 
-0.3479 251.077 7.53167 7425.13 27 312.093 176.844 
-0.3471 240.279 5.33908 7429.98 20 249.972 200.105 
-0.3463 301.493 8.03914 7384.63 24 390.419 149.631 
-0.3455 295.972 6.57661 7360.53 20 300.74 79.2785 
-0.3447 222.614 4.20458 7393.1 17 299.293 108.49 
-0.3439 273.91 5.78207 7347.14 19 346.64 80.0856 
-0.3431 290.513 6.45531 7455.5 20 201.059 158.557 
-0.3423 217.993 4.84388 7399.93 20 190.374 158.557 
-0.3415 309.918 3.78758 7468.64 11 248.076 0 
-0.3407 216.157 5.52355 7490.72 23 320.918 0 
-0.3399 286.311 5.08955 7413.75 16 339.457 85.1125 
-0.3391 202.753 5.18103 7423.4 23 416.943 75.8112 
-0.3383 238.696 6.0995 7471.77 23 317.516 75.6561 
-0.3375 269.581 4.49265 7415.51 15 282.804 0 
-0.3367 283.826 6.62205 7363.17 21 412.834 130.916 
-0.3359 302.443 7.05641 7423.18 21 355.951 99.4156 
-0.3351 304.217 7.4358 7355.08 22 242.333 97.612 
-0.3343 237.483 6.86006 7418.32 26 266.066 105.751 
-0.3335 251.117 5.57992 7397.76 20 361.16 101.378 
-0.3327 330.993 7.35478 7408.9 20 302.266 78.8022 
-0.3319 279.539 5.90089 7305.93 19 279.381 0 
-0.3311 307.355 5.46364 7323.86 16 300.136 0 
-0.3303 309.05 4.12032 7317.69 12 350.072 93.536 
-0.3295 253.853 3.38443 7432.59 12 330.708 190.576 
-0.3287 277.439 8.01423 7437.36 26 314.888 72.9075 
-0.3279 243.142 6.2131 7493.89 23 331.337 95.4641 
-0.3271 216.304 3.60477 7329.03 15 323.855 87.5423 
-0.3263 386.671 11.1696 7365.83 26 409.808 164.64 
-0.3255 274.598 5.49151 7389.17 18 235.309 82.1134 
-0.3247 259.923 4.33168 7272.91 15 279.9 0 
-0.3239 295.597 10.8377 7311.68 33 397.729 136.322 
-0.3231 296.569 5.2719 7403.3 16 312.733 0 
-0.3223 246.876 7.40566 7352.98 27 317.657 179.433 
-0.3215 386.521 7.30035 7476.14 17 442.652 190.887 
-0.3207 280.684 7.17243 7326.44 23 278.95 75.4912 
-0.3199 247.639 6.60315 7371.87 24 257.269 75.142 
-0.3191 237.261 6.32644 7386.09 24 385.122 149.88 
-0.3183 272.481 8.17375 7358.28 27 423.961 162.144 
-0.3175 312.08 10.4018 7378.96 30 415.618 174.078 
-0.3167 256.286 5.12529 7334.59 18 281.73 82.1134 
-0.3159 260.719 7.53125 7507.84 26 352.441 0 
-0.3151 355.982 7.91006 7279.76 20 323.66 79.4976 
-0.3143 246.145 6.01638 7402.91 22 229.851 76.7031 
-0.3135 184.818 3.90138 7464.13 19 355.28 80.3645 
-0.3127 266.086 7.68629 7390.48 26 212.771 178.544 
-0.3119 276.2 6.13726 7338.66 20 288.591 158.091 
-0.3111 366.83 5.29821 7315.36 13 455.182 281.263 
-0.3103 313.42 5.22323 7446.67 15 188.331 173.006 
-0.3095 245.018 4.62774 7446 17 335.993 227.686 
-0.3087 295.426 6.23625 7407.87 19 354.067 102.766 
-0.3079 369.468 5.7468 7360.48 14 290.863 116.824 
-0.3071 307.309 5.80424 7346.31 17 292.41 0 
-0.3063 247.536 7.42545 7402.73 27 432.574 72.1927 
-0.3055 228.346 4.56654 7401.02 18 311 187.995 
-0.3047 242.091 5.11037 7441.39 19 346.634 102.032 
-0.3039 256.216 4.55457 7386.62 16 157.015 195.381 
-0.3031 208.09 4.62384 7397.91 20 419.521 237.085 
-0.3023 336.129 7.09546 7324.41 19 287.878 0 
-0.3015 265.818 6.49724 7369.41 22 351.303 76.8802 
-0.3007 259.725 5.48263 7372.2 19 425.285 0 
-0.2999 265.674 6.49371 7345.48 22 381.686 153.406 
-0.2991 345.115 8.81886 7363.97 23 227.783 151.312 
-0.2983 258.284 6.31309 7344.54 22 303.654 114.913 
-0.2975 274.852 5.80195 7399.09 19 371.668 81.1229 
-0.2967 85.2539 0.473593 7592.11 5 420.719 0 
-0.2959 264.576 5.58502 7482.29 19 301.502 182.117 
-0.2951 264.788 3.53021 7315 12 279.608 0 
-0.2943 289.552 6.75564 7481.66 21 312.073 77.6162 
-0.2935 233.638 3.11491 7265.61 12 230.211 0 
-0.2927 303.31 5.05474 7390.96 15 326.362 87.039 
-0.2919 349.471 6.2123 7309.58 16 400.996 84.6795 
-0.2911 294.379 9.48477 7386.91 29 240.927 158.072 
-0.2903 307.742 6.15432 7378.85 18 297.86 0 
-0.2895 259.096 6.33293 7467.84 22 296.042 189.669 
-0.2887 273.717 5.16978 7286.61 17 240.196 83.3767 
-0.2879 250.95 6.13382 7424.16 22 336.716 116.803 
-0.2871 158.421 2.1121 7335.46 12 215.618 94.4034 
-0.2863 274.164 7.91964 7409.43 26 263.807 145.54 
-0.2855 164.004 3.46201 7424.92 19 308.296 102.766 
-0.2847 220 4.39963 7326.16 18 331.868 81.8019 
-0.2839 284.802 8.22692 7475.79 26 294.517 119.07 
-0.2831 226.294 4.52551 7380.24 18 449.496 204.773 
-0.2823 361.797 6.83336 7508.86 17 222.185 83.3767 
-0.2815 273.865 6.38964 7383.46 21 431.688 156.014 
-0.2807 393.719 7.87372 7402.82 18 278.218 187.995 
-0.2799 299.562 4.32664 7468.67 13 261.019 91.6271 
-0.2791 197.524 3.29179 7426.89 15 213.292 87.039 
-0.2783 250.46 4.73051 7396.82 17 256.764 83.3767 
-0.2775 199.22 4.86941 7239.93 22 303.681 76.7031 
-0.2767 240.654 4.54531 7302.98 17 324.629 83.0049 
-0.2759 201.156 2.90534 7422.28 13 501.782 181.819 
-0.2751 310.423 8.62215 7309.87 25 254.056 73.6366 
-0.2743 235.578 4.18771 7358.8 16 310.264 109.19 
-0.2735 240.349 6.67581 7435.01 25 207.138 73.7654 
-0.2727 316.601 7.03499 7369.64 20 317.571 158.091 
-0.2719 351.034 9.36013 7378.13 24 244.808 169.219 
-0.2711 215.116 4.77996 7404.97 20 277.305 102.065 
-0.2703 331.35 6.62644 7333.29 18 353.27 0 
-0.2695 281.018 6.86876 7362.21 22 378.959 153.76 
-0.2687 201.275 5.14326 7411.94 23 298.292 191.894 
-0.2679 310.272 4.48133 7385.47 13 361.618 181.819 
-0.2671 247.482 5.77409 7323.55 21 406.582 156.443 
-0.2663 324.66 7.57477 7340.79 21 264.649 78.0321 
-0.2655 213.237 5.44895 7440.82 23 355.176 75.4912 
-0.2647 257.193 7.42939 7320.88 26 390.748 163.703 
-0.2639 299.081 7.97483 7397.23 24 275.44 299.214 
-0.2631 180.064 3.40093 7374.48 17 286.309 0 
-0.2623 236.88 6.57946 7399.71 25 448.753 147.531 
-0.2615 305.227 7.46049 7388.23 22 307.832 153.76 
-0.2607 215.804 7.19287 7412.55 30 387.671 69.9355 
-0.2599 321.999 8.94366 7383.46 25 391.399 73.885 
-0.2591 338.664 9.03029 7365.37 24 270.7 0 
-0.2583 331.673 8.10688 7358.55 22 333.312 76.8802 
-0.2575 236.473 4.99178 7382.49 19 347.72 102.766 
-0.2567 341.856 9.87502 7421.03 26 284.174 0 
-0.2559 259.938 5.19834 7340.17 18 201.459 105.881 
-0.2551 233.843 7.53433 7425.85 29 325.852 70.618 
-0.2543 319.448 6.74334 7418.33 19 190.344 80.3645 
-0.2535 304.849 5.08039 7281.15 15 322.281 87.039 
-0.2527 238.479 6.62387 7402.32 25 501.688 92.1796 
-0.2519 219.814 5.12856 7439.87 21 329.206 156.064 
-0.2511 219.407 4.87531 7356.08 20 191.313 178.855 
-0.2503 207.541 5.30339 7391.03 23 284.033 226.425 
-0.4993 252.104 5.04165 7444.5 18 318.359 163.604 
-0.4985 227.257 6.56464 7371.45 26 271.311 164.174 
-0.4977 257.129 5.99918 7390.91 21 233.872 155.659 
-0.4969 227.162 6.05716 7399.97 24 249.961 74.6794 
-0.4961 260.903 5.79736 7521.49 20 299.47 79.0455 
-0.4953 259.361 6.3394 7370.57 22 291.301 153.357 
-0.4945 354.086 9.8349 7390.53 25 246.2 93.7663 
-0.4937 338.8 7.15185 7406.79 19 463.407 160.729 
-0.4929 261.659 5.52345 7444.3 19 299.961 80.3645 
-0.4921 241.257 6.16495 7369.3 23 317.844 203.683 
-0.4913 278.779 6.19457 7383.35 20 424.402 158.091 
-0.4905 271.322 6.63175 7427.49 22 260.929 173.779 
-0.4897 293.235 7.81896 7471.2 24 269.723 0 
-0.4889 307.899 6.84163 7430.89 20 450.359 214.421 
-0.4881 328.619 8.39735 7374.46 23 210.276 76.0813 
-0.4873 291.926 8.43272 7387.67 26 290.902 0 
-0.4865 234.791 4.69544 7462.99 18 293.21 0 
-0.4857 336.518 9.72082 7413.84 26 333.218 164.64 
-0.4849 383.59 8.9497 7373.92 21 287.474 175.848 
-0.4841 305.726 5.09501 7514.11 15 289.348 0 
-0.4833 237.843 5.28497 7361.84 20 354.031 159.397 
-0.4825 332.666 7.02236 7488.59 19 373.31 0 
-0.4817 238.997 5.04506 7426.17 19 212.309 80.0856 
-0.4809 257.411 4.86181 7570.89 17 203.076 0 
-0.4801 237.975 4.75911 7441.63 18 300.263 186.825 
-0.4793 204.548 4.31787 7320.94 19 389.467 0 
-0.4785 263.948 6.45153 7348.18 22 428.146 76.7031 
-0.4777 281.09 5.93362 7343.47 19 190.837 80.0856 
-0.4769 330.709 8.45074 7405.46 23 482.33 172.39 
-0.4761 270.264 4.50402 7355.04 15 275.137 0 
-0.4753 177.27 3.74206 7437.91 19 200.319 121.603 
-0.4745 242.906 6.74682 7366.78 25 248.287 73.885 
-0.4737 322.437 5.73173 7355.28 16 307.761 85.1125 
-0.4729 270.627 7.51678 7477.86 25 351.581 73.9933 
-0.4721 229.383 4.84212 7409.5 19 354.893 0 
-0.4713 263.777 5.86123 7445.18 20 379.867 158.04 
-0.4705 340.159 6.80261 7484.31 18 358.422 82.1134 
-0.4697 228.606 5.58769 7424.59 22 394.556 98.1572 
-0.4689 246.549 5.47842 7447.32 20 323.771 0 
-0.4681 272.988 7.88566 7422.23 26 291.703 0 
-0.4673 300.471 7.34424 7398.25 22 353.276 0 
-0.4665 313.629 7.66585 7343.74 22 240.423 0 
-0.4657 347.88 5.41101 7341.98 14 164.266 88.5933 
-0.4649 231.384 5.65559 7380.05 22 229.986 153.032 
-0.4641 257.293 4.85958 7413.27 17 299.553 274.21 
-0.4633 272.947 5.15524 7341.75 17 321.724 190.887 
-0.4625 257.332 7.4334 7347.7 26 276.187 73.0127 
-0.4617 414.357 7.36573 7405.38 16 381.253 84.6795 
-0.4609 232.98 5.69459 7385.36 22 303.758 0 
-0.4601 232.151 4.38471 7398.46 17 270.212 0 
-0.4593 275.197 7.03222 7353.71 23 275.463 0 
-0.4585 335.371 7.45207 7466.83 20 370.151 79.4976 
-0.4577 291.82 7.13278 7384.89 22 363.797 173.779 
-0.4569 340.834 5.68009 7368.02 15 292.901 0 
-0.4561 317.968 8.47844 7381.3 24 310.821 74.5338 
-0.4553 321.219 8.92201 7342.32 25 336.218 92.1796 
-0.4545 217.48 3.62437 7425.69 15 351.994 86.531 
-0.4537 257.859 5.15675 7326.25 18 288.532 81.4807 
-0.4529 273.165 4.85586 7371.72 16 260.501 0 
-0.4521 313.325 5.22165 7450.27 15 246.384 0 
-0.4513 250.113 5.83548 7398.4 21 261.816 155.659 
-0.4505 287.479 5.11031 7395.01 16 308.222 0 
-0.4497 227.061 5.54991 7429 22 224.709 383.536 
-0.4489 292.364 5.19716 7352.92 16 240.825 84.6795 
-0.4481 246.271 4.6514 7490.14 17 363.806 0 
-0.4473 235.363 6.01434 7433.92 23 266.253 0 
-0.4465 307.35 8.19531 7292.79 24 373.312 149.631 
-0.4457 209.019 4.64448 7463.24 20 435.621 158.091 
-0.4449 270.733 4.51184 7387.17 15 430.791 0 
-0.4441 197.515 4.16942 7380.23 19 359.483 80.3645 
-0.4433 200.468 4.45448 7381.22 20 309.237 0 
-0.4425 300.242 5.67077 7440.84 17 384.296 83.0049 
-0.4417 198.729 3.09108 7399.18 14 293.351 89.1941 
-0.4409 324.225 4.68286 7328.13 13 325.8 209.98 
-0.4401 274.879 8.85648 7402.4 29 366.607 70.7524 
-0.4393 217.179 5.30837 7332.66 22 295.59 196.314 
-0.4385 209.158 5.80947 7436.48 25 343.368 167.359 
-0.4377 292.522 7.47495 7407.79 23 304.52 75.8112 
-0.4369 300.389 7.67597 7474.65 23 310.355 95.4641 
-0.4361 465.58 10.3453 7434.27 20 312.859 157.604 
-0.4353 296.071 8.55245 7400.47 26 354.159 164.174 
-0.4345 248.825 6.63478 7402.68 24 357.017 0 
-0.4337 241.718 5.10251 7423.66 19 409.527 80.6333 
-0.4329 252.802 6.17909 7388.33 22 449.841 97.612 
-0.4321 320.189 4.98031 7315.79 14 283.734 206.018 
-0.4313 344.447 8.80181 7367.81 23 267.006 95.4641 
-0.4305 388.261 9.92141 7334.15 23 341.563 96.436 
-0.4297 280.871 6.55311 7451.03 21 361.779 155.232 
-0.4289 238.2 3.70502 7351.23 14 314.989 0 
-0.4281 248.083 6.89063 7280.8 25 284.731 73.6366 
-0.4273 355.351 8.68564 7364.49 22 369.793 76.7031 
-0.4265 325.701 7.59906 7281.25 21 411.683 0 
-0.4257 300.347 8.00859 7341.05 24 351.963 110.639 
-0.4249 226.319 5.78322 7357.72 23 354.897 95.9469 
-0.4241 329.698 7.6923 7441.52 21 366.709 116.331 
-0.4233 410.414 7.75162 7416.24 17 344.343 83.0049 
-0.4225 269.476 4.79028 7396.58 16 431.384 110.269 
-0.4217 290.078 8.70162 7403.33 27 338.255 117.164 
-0.4209 236.609 7.09767 7433.46 27 196.461 72.1001 
-0.4201 341.123 8.71686 7457.53 23 253.438 151.622 
-0.4193 258.928 6.32882 7378.55 22 233.889 0 
-0.4185 202.825 4.2815 7300.21 19 357.392 0 
-0.4177 243.829 7.85607 7367.14 29 393.379 0 
-0.4169 349.778 10.8811 7362.18 28 373.346 71.3383 
-0.4161 248.109 5.23743 7402.61 19 349.228 160.729 
-0.4153 273.754 6.69121 7382.16 22 294.22 173.779 
-0.4145 290.102 6.44617 7389.01 20 287.246 180.656 
-0.4137 280.58 8.41669 7363.77 27 563.222 176.193 
-0.4129 231.586 4.63133 7343.81 18 494.915 104.194 
-0.4121 184.316 4.7099 7383.9 23 239.99 302.576 
-0.4113 275.464 6.1209 7338.28 20 352.843 79.2785 
-0.4105 276.391 6.44859 7415.08 21 374.051 176.646 
-0.4097 334.399 7.802 7376.16 21 349.668 117.326 
-0.4089 216.905 3.85578 7327.52 16 308.623 218.38 
-0.4081 304.228 4.73204 7362.73 14 325.962 89.7945 
-0.4073 245.044 4.08373 7338.11 15 225.803 0 
-0.4065 200.115 3.33498 7385.67 15 407.246 87.039 
-0.4057 259.962 6.64293 7415.14 23 364.228 75.8112 
-0.4049 226.651 4.02902 7424.03 16 438.089 0 
-0.4041 298.912 5.64565 7320.98 17 182.041 83.3767 
-0.4033 232.626 5.68595 7420.38 22 236.418 229.498 
-0.4025 280.221 4.98129 7469.94 16 247.889 84.6795 
-0.4017 357.411 8.73597 7373.34 22 410.427 97.0757 
-0.4009 189.963 3.58789 7392.47 17 417.995 333.453 
-0.4001 328.2 8.02201 7386.02 22 439.244 153.76 
-0.3993 308.899 8.23662 7326.14 24 212.622 75.0497 
-0.3985 281.508 5.31694 7331.57 17 221.311 83.7397 
-0.3977 348.818 6.20069 7456.34 16 387.872 0 
-0.3969 246.841 6.03339 7391.93 22 268.202 173.779 
-0.3961 261.47 5.51945 7421.82 19 210.32 183.131 
-0.3953 239.254 3.98723 7312.89 15 289.225 112.106 
-0.3945 337.74 6.75424 7305.59 18 257.579 0 
-0.3937 316.373 8.43591 7371.72 24 391.035 168.646 
-0.3929 391.101 4.77972 7398.45 11 420.23 224.722 
-0.3921 248.619 5.5244 7503.52 20 278.232 0 
-0.3913 252.729 6.73887 7407.72 24 193.148 74.8155 
-0.3905 267.819 7.43879 7412.4 25 363.196 217.314 
-0.3897 349.991 8.55461 7381.95 22 389.098 153.406 
-0.3889 326.853 6.17338 7388.64 17 225.951 0 
-0.3881 351.911 5.8647 7332.56 15 391.22 86.531 
-0.3873 299.835 7.66182 7458.84 23 370.631 151.312 
-0.3865 253.359 4.78527 7383.27 17 188.554 0 
-0.3857 268.157 6.55441 7372.43 22 318.681 191.793 
-0.3849 229.225 5.85747 7381.41 23 355.667 203.683 
-0.3841 275.192 5.50338 7361.63 18 302.451 186.825 
-0.3833 251.336 5.58477 7390.58 20 286.125 178.855 
-0.3825 239.907 5.59737 7351.76 21 292.4 0 
-0.3817 240.416 4.0066 7358.82 15 258.586 88.0338 
-0.3809 234.6 7.29806 7358.12 28 352.335 71.3383 
-0.3801 163.706 2.36444 7335.39 13 330.658 0 
-0.3793 411.199 7.76644 7491.39 17 254.878 83.0049 
-0.3785 279.617 5.28122 7426.79 17 233.771 168.177 
-0.3777 219.16 5.11331 7429.52 21 370.67 155.659 
-0.3769 311.077 9.67715 7364.26 28 260.601 71.4918 
-0.3761 238.296 5.29503 7461.94 20 383.473 78.8022 
-0.3753 233.541 3.63255 7458.96 14 257.689 88.5933 
-0.3745 297.484 5.28817 7549.53 16 397.959 236.563 
-0.3737 259.274 6.91339 7332.77 24 303.513 111.396 
-0.3729 283.117 8.4928 7405.06 27 331.196 176.844 
-0.3721 320.116 5.69047 7402.22 16 226.659 85.1125 
-0.3713 328.453 7.29834 7473.42 20 301.763 79.2785 
-0.3705 278.71 9.90887 7372.42 32 284.49 0 
-0.3697 223.762 8.20392 7423.81 33 285.526 68.1608 
-0.3689 246.097 5.19495 7412.1 19 421.306 0 
-0.3681 366.611 6.9243 7527.64 17 367.869 83.0049 
-0.3673 249.297 4.15461 7429.2 15 424.583 200.39 
-0.3665 284.816 4.11366 7319.75 13 340.499 0 
-0.3657 265.261 6.48362 7339.8 22 246.03 114.913 
-0.3649 214.042 4.28048 7397.8 18 261.533 81.8019 
-0.3641 241.825 7.52281 7467.97 28 292.736 0 
-0.3633 338.449 7.89649 7424.96 21 279.243 177.448 
-0.3625 279.28 6.2057 7425.49 20 229.98 100.052 
-0.3617 286.572 5.41258 7396.43 17 340.207 0 
-0.3609 280.968 4.37024 7432.38 14 317.399 89.1941 
-0.3601 401.583 8.03099 7382.4 18 236.985 81.4807 
-0.3593 253.731 7.0475 7388.37 25 252.693 0 
-0.3585 288.299 6.08581 7350.34 19 306.093 224.369 
-0.3577 209.563 4.8894 7430.73 21 358.29 133.64 
-0.3569 331.607 6.63159 7466.73 18 401.815 0 
-0.3561 286.266 7.95118 7522.65 25 269.793 148.176 
-0.3553 236.573 6.57093 7404.76 25 290.995 92.9674 
-0.3545 330.557 8.81412 7417.12 24 242.482 149.359 
-0.3537 276.733 5.84166 7444.32 19 309.184 0 
-0.3529 229.739 5.36013 7394.14 21 271.503 0 
-0.3521 184.681 3.89849 7411.39 19 343.109 80.3645 
-0.3513 276.668 6.76242 7479.99 22 317.771 76.8802 
-0.3505 290.063 6.44531 7423.12 20 282.282 79.0455 
-0.3497 267.376 4.45589 7493.38 15 432.599 87.039 
-0.3489 243.153 3.78207 7440.93 14 289.664 116.824 
-0.3481 245.564 4.91087 7505.61 18 332.442 186.825 
-0.3473 254.329 5.08616 7408.58 18 442.531 81.4807 
-0.3465 322.815 5.02114 7277.41 14 227.78 0 
-0.3457 258.08 4.58771 7468.96 16 332.811 0 
-0.3449 289.087 4.81772 7369.89 15 329.848 87.039 
-0.3441 250.21 4.7258 7370.39 17 375.083 166.01 
-0.3433 265.762 5.31479 7467.9 18 289.671 190.37 
-0.3425 199.22 5.3121 7415.47 24 229.22 197.826 
-0.3417 192.882 5.1431 7394.09 24 298.994 168.07 
-0.3409 236.514 6.30651 7431.36 24 322.628 109.904 
-0.3401 436.107 10.6595 7350.82 22 510.689 97.0757 
-0.3393 273.003 5.15629 7389.43 17 285.663 213.135 
-0.3385 336.934 6.36378 7398.19 17 238.038 178.543 
-0.3377 351.353 6.24576 7419.14 16 420.376 193.869 
-0.3369 234.197 6.76512 7423.49 26 356.176 90.9094 
-0.3361 242.47 6.19593 7508.9 23 218.834 0 
-0.3353 218.79 5.34776 7367.66 22 352.625 173.065 
-0.3345 262.897 7.00999 7458.53 24 325.198 111.396 
-0.3337 320.529 7.83449 7257.28 22 407.591 0 
-0.3329 321.634 7.14682 7354.11 20 305.393 158.557 
-0.3321 242.389 4.03949 7438.1 15 436.352 0 
-0.3313 257.965 5.15887 7383.02 18 429.486 186.825 
-0.3305 287.522 7.34716 7340.67 23 380.288 0 
-0.3297 356.918 9.12048 7449 23 393.443 0 
-0.3289 355.109 7.10159 7354.13 18 357.693 0 
-0.3281 329.853 8.79534 7341.93 24 221.388 94.4034 
-0.3273 313.73 6.27407 7346.33 18 243.442 210.046 
-0.3265 262.653 5.54443 7499.5 19 440.416 0 
-0.3257 319.132 9.21861 7470.95 26 448.267 72.9075 
-0.3249 303.758 4.38725 7362.4 13 237.384 0 
-0.3241 241.087 7.49987 7367.08 28 356.189 159.842 
-0.3233 237.679 5.01725 7362.35 19 441.997 80.6333 
-0.3225 260.682 5.50283 7331.41 19 197.248 161.267 
-0.3217 292.234 4.87017 7432.17 15 271.956 198.637 
-0.3209 271.095 5.42144 7417.44 18 305.884 186.825 
-0.3201 277.186 5.85122 7457.62 19 265.794 80.0856 
-0.3193 273.318 4.25126 7372.92 14 358.913 178.388 
-0.3185 316.923 6.33793 7413.91 18 370.266 81.8019 
-0.3177 290.663 3.22932 7329.03 10 257.244 233.951 
-0.3169 219.558 4.63473 7341.65 19 328.104 80.0856 
-0.3161 257.305 6.57503 7520.09 23 415.364 94.9884 
-0.3153 348.899 9.69082 7303.36 25 433.015 93.366 
-0.3145 342.297 6.84536 7299.45 18 376.71 104.194 
-0.3137 238.145 4.23334 7372.1 16 265.139 0 
-0.3129 296.11 9.54052 7329.19 29 252.499 70.7524 
-0.3121 275.585 7.34832 7431.07 24 185.113 168.646 
-0.3113 283.941 5.67834 7426.02 18 369.538 82.1134 
-0.3105 313.411 8.70515 7402.11 25 397.321 108.734 
-0.3097 333.144 6.66232 7440.95 18 462.141 82.1134 
-0.3089 242.39 3.5009 7435.28 13 298.874 274.822 
-0.3081 253.132 2.53111 7427.66 9 404.013 0 
-0.3073 240.574 6.1475 7415.48 23 231.29 112.692 
-0.3065 207.368 4.14702 7380.39 18 386.749 0 
-0.3057 258.031 4.58683 7433.56 16 236.357 0 
-0.3049 329.275 6.58496 7376.59 18 390.435 0 
-0.3041 258.95 6.90476 7420.09 24 225.578 149.359 
-0.3033 204.169 4.08305 7386.91 18 279.11 0 
-0.3025 304.827 7.11203 7384.53 21 211.598 0 
-0.3017 248.037 7.16492 7339.69 26 190.748 72.9075 
-0.3009 276.276 7.67369 7343.28 25 264.831 181.83 
-0.3001 406.137 9.02451 7392.21 20 258.719 182.465 
-0.2993 295.161 6.88652 7370.87 21 254.738 77.8293 
-0.2985 242.472 4.84903 7283.38 18 216.109 211.762 
-0.2977 364.561 7.69564 7465.35 19 225.273 160.171 
-0.2969 298.735 7.6337 7381.99 23 217.079 111.882 
-0.2961 234.902 6.00256 7426.96 23 306.483 0 
-0.2953 287.172 4.46675 7410.11 14 309.232 0 
-0.2945 186.193 4.13727 7457.76 20 392.547 178.855 
-0.2937 316.077 5.61867 7438.79 16 368.436 0 
-0.2929 307.506 5.46631 7369.64 16 263.063 85.1125 
-0.2921 323.016 8.97192 7464.85 25 332.934 147.531 
-0.2913 299.343 5.98636 7341.13 18 374.304 81.8019 
-0.2905 342.325 9.50823 7397.85 25 292.778 166.337 
-0.2897 368.382 3.68351 7398.59 9 347.751 0 
-0.2889 241.891 4.03118 7431.58 15 322.86 200.39 
-0.2881 387.452 13.3445 7447.09 31 382.209 85.5812 
-0.2873 255.014 4.5332 7366.46 16 325.226 0 
-0.2865 299.986 6.99909 7438.43 21 433.617 0 
-0.2857 271.836 7.55037 7409.25 25 351.521 183.416 
-0.2849 283.238 7.55237 7377.59 24 244.976 168.646 
-0.2841 211.32 4.9304 7364.33 21 345.764 0 
-0.2833 313.852 9.06609 7375.75 26 345.592 0 
-0.2825 313.736 5.92563 7415.47 17 245.248 211.354 
-0.2817 242.399 6.46343 7481.66 24 330.317 168.646 
-0.2809 257.081 7.71177 7425.35 27 358.535 0 
-0.2801 262.725 5.54596 7348.53 19 239.841 80.3645 
-0.2793 159.232 3.36128 7471.55 19 377.29 102.766 
-0.2785 150.518 2.00674 7359.88 12 387.092 93.536 
-0.2777 261.751 6.68864 7388.84 23 282.727 187.538 
-0.2769 230.472 5.37723 7437.08 21 319.083 98.8171 
-0.2761 187.017 3.53224 7341.18 17 242.321 0 
-0.2753 228.22 6.84604 7419.35 27 234.981 215.419 
-0.2745 309.418 6.87538 7444.74 20 498.731 79.2785 