ITEM: TIMESTEP
1000
ITEM: NUMBER OF CELLS
5000
ITEM: BOX BOUNDS or pp pp
-0.5 0.5
0 0.0002
-0.5 0.5
ITEM: CELLS xc c_1[1] c_1[2] c_2[1] c_2[2] c_2[3] c_3[1] 
-0.4999 237.373 5.27452 7469.82 20 261.427 79.0455 
-0.4991 280.054 5.28947 7322.82 17 374.352 0 
-0.4983 300.531 8.0135 7483.69 24 443.08 93.536 
-0.4975 182.026 2.62905 7372.08 13 397.281 91.6271 
-0.4967 216.861 5.05967 7379.63 21 214.761 0 
-0.4959 285.143 5.38558 7442.19 17 351.805 83.3767 
-0.4951 345.779 7.29917 7347.17 19 189.821 183.131 
-0.4943 291.104 5.82159 7465.3 18 317.373 107.683 
-0.4935 297.627 6.28271 7375.12 19 282.481 183.131 
-0.4927 256.597 3.99117 7434.57 14 339.306 265.723 
-0.4919 314.741 6.99365 7361.93 20 381.096 0 
-0.4911 288.924 7.704 7449.65 24 379.482 94.844 
-0.4903 234.951 7.30896 7383.62 28 305.547 71.5524 
-0.4895 305.152 4.40738 7311.66 13 405.963 181.819 
-0.4887 330.575 5.50913 7328.17 15 307.572 0 
-0.4879 251.415 5.02788 7390.62 18 318.001 164.227 
-0.4871 288.253 7.68612 7381.52 24 200.709 93.967 
-0.4863 261.487 7.55343 7351.15 26 391.514 0 
-0.4855 297.573 6.94279 7337.5 21 405.339 0 
-0.4847 273.977 3.34833 7576.5 11 209.64 97.612 
-0.4839 281.465 5.94155 7425.24 19 286.181 160.171 
-0.4831 341.685 7.97199 7477.8 21 356.748 197.634 
-0.4823 313.634 6.27216 7317.48 18 265.912 0 
-0.4815 299.154 3.98838 7434.55 12 167.958 188.807 
-0.4807 206.696 3.215 7369.38 14 286.486 90.3862 
-0.4799 276.899 5.53752 7509.72 18 450.568 81.8019 
-0.4791 230.14 7.41501 7400.77 29 371.762 158.427 
-0.4783 333.505 7.41061 7384.16 20 209.363 79.0455 
-0.4775 310.492 6.20933 7390.19 18 275.216 0 
-0.4767 311.805 7.62127 7343.28 22 247.322 174.492 
-0.4759 248.373 4.13921 7569.63 15 209.182 87.039 
-0.4751 270.158 5.70285 7463.06 19 326.204 102.032 
-0.4743 425.845 8.9893 7461.81 19 427.538 162.246 
-0.4735 249.675 4.99308 7378.62 18 210.008 104.194 
-0.4727 301.546 8.04055 7387.65 24 382.937 149.359 
-0.4719 239.454 6.65094 7440.37 25 395.132 73.7654 
-0.4711 164.16 2.37101 7428.29 13 298.103 119.07 
-0.4703 345.602 7.6794 7348.65 20 443.362 79.0455 
-0.4695 264.666 4.70477 7392.2 16 383.413 111.396 
-0.4687 279.709 4.66144 7422.5 15 417.597 0 
-0.4679 283.723 9.45663 7343.46 30 251.827 157.038 
-0.4671 255.455 6.24394 7366.31 22 370.438 190.72 
-0.4663 172.377 3.83028 7406.83 20 237.636 79.0455 
-0.4655 294.112 3.26764 7379.23 10 183.488 100.052 
-0.4647 307.266 7.16893 7373.48 21 374.389 78.0321 
-0.4639 157.203 2.27052 7410.75 13 242.994 119.07 
-0.4631 280.338 9.03237 7407.09 29 372.37 88.0852 
-0.4623 264.23 5.87128 7407.37 20 201.885 157.553 
-0.4615 289.567 6.43428 7408.14 20 330.458 79.0455 
-0.4607 251.578 6.70818 7349.11 24 357.787 183.724 
-0.4599 230.32 5.62956 7427.92 22 331.67 76.5158 
-0.4591 287.744 6.39377 7416.85 20 222.188 0 
-0.4583 398.621 7.52888 7397.09 17 464.867 84.0885 
-0.4575 350.688 8.96127 7335.34 23 320.397 75.8112 
-0.4567 227.835 7.34075 7378.7 29 352.29 141.505 
-0.4559 229.608 6.63256 7446.1 26 247.106 72.9075 
-0.4551 196.406 3.70958 7426.68 17 222.672 83.3767 
-0.4543 279.695 8.39016 7384.21 27 377.896 162.565 
-0.4535 305.017 9.82751 7394.35 29 371.75 141.688 
-0.4527 299.455 8.3175 7411.82 25 211.508 0 
-0.4519 286.968 7.333 7358.82 23 288.994 75.6561 
-0.4511 267.589 3.56756 7455.81 12 314.432 0 
-0.4503 307.774 7.86467 7336.93 23 408.799 111.882 
-0.4495 268.114 4.17031 7452.36 14 357.41 0 
-0.4487 296.898 5.60762 7355.51 17 351.499 83.0049 
-0.4479 237.356 6.32896 7393.67 24 331.825 74.8155 
-0.4471 172.282 4.4024 7310.94 23 190.312 75.4912 
-0.4463 251.689 3.6352 7387.56 13 420.885 209.98 
-0.4455 426.666 9.48068 7387.38 20 355.511 179.752 
-0.4447 248.865 5.52988 7446.6 20 335.851 0 
-0.4439 233.536 3.63248 7431 14 531.709 203.968 
-0.4431 281.309 6.25078 7366.75 20 285.543 79.0455 
-0.4423 249.805 4.71814 7466.61 17 239.565 83.0049 
-0.4415 280.361 4.98377 7384.08 16 395.576 0 
-0.4407 304.129 9.7989 7365.78 29 372.654 88.6343 
-0.4399 297.102 8.25215 7496.87 25 322.55 185.143 
-0.4391 256.081 5.12119 7252.21 18 355.276 0 
-0.4383 190.549 4.23406 7401.96 20 269.637 79.0455 
-0.4375 255.597 5.11151 7383.21 18 298.694 81.8019 
-0.4367 252.189 7.84523 7494.41 28 341.805 89.4948 
-0.4359 365.775 7.72128 7427.23 19 497.808 160.171 
-0.4351 196.742 4.59027 7451.25 21 237.573 78.2215 
-0.4343 303.366 5.72977 7492.91 17 265.773 127.977 
-0.4335 331.365 6.25859 7399.87 17 347.525 0 
-0.4327 324.069 7.20093 7350.24 20 325.845 79.2785 
-0.4319 252.063 8.68144 7361.69 31 327.259 155.103 
-0.4311 304.005 7.4306 7459.67 22 316.564 0 
-0.4303 211.153 3.98811 7456.33 17 316.907 0 
-0.4295 233.157 3.62658 7425.84 14 231.736 178.388 
-0.4287 290.295 8.70812 7452.31 27 260.86 0 
-0.4279 275.267 6.42235 7338.09 21 236.037 0 
-0.4271 249.541 3.88142 7364.18 14 326.236 0 
-0.4263 292.709 7.15452 7365.48 22 242.165 249.531 
-0.4255 296.845 5.6066 7347.82 17 305.847 83.0049 
-0.4247 240.934 2.67683 7479.22 10 367.504 101.378 
-0.4239 262.939 4.38195 7424.47 15 281.113 175.085 
-0.4231 280.899 5.9296 7448.01 19 426.759 80.3645 
-0.4223 311.069 7.60328 7280.4 22 333.104 252.196 
-0.4215 371.993 8.26583 7436.62 20 203.017 117.785 
-0.4207 307.878 6.4991 7393.37 19 482.634 121.603 
-0.4199 236.315 6.56377 7454.66 25 342.724 0 
-0.4191 271.078 4.51758 7380.56 15 473.496 175.085 
-0.4183 170.797 2.46686 7479.85 13 306.387 0 
-0.4175 191.92 3.41162 7354.68 16 273.627 84.6795 
-0.4167 258.083 6.30817 7354.76 22 276.443 0 
-0.4159 275.069 6.11212 7396.46 20 329.651 79.4976 
-0.4151 334.033 6.30898 7410.87 17 298.857 0 
-0.4143 247.644 5.77788 7279.41 21 393.273 98.8171 
-0.4135 338.247 6.01279 7340.7 16 526.411 85.1125 
-0.4127 166.678 4.25918 7449.56 23 290.606 0 
-0.4119 353.149 10.5936 7403.64 27 250.567 89.7164 
-0.4111 258.203 6.31111 7407.7 22 427.214 153.032 
-0.4103 296.142 4.93529 7488.41 15 164.077 0 
-0.4095 286.958 6.37631 7391.37 20 268.984 78.8022 
-0.4087 203.442 2.93836 7426.5 13 467.319 143.32 
-0.4079 308.559 6.51348 7486.44 19 226.966 80.6333 
-0.4071 256.202 7.11613 7366.71 25 259.047 73.6366 
-0.4063 231.17 5.90719 7411.01 23 243.694 151.312 
-0.4055 259.704 7.79046 7396.63 27 235.979 90.7015 
-0.4047 280.33 6.22904 7414 20 288.612 78.8022 
-0.4039 345.781 8.83588 7497.25 23 281.953 0 
-0.4031 328.236 6.56418 7344.36 18 183.487 245.353 
-0.4023 246.133 5.74262 7375.07 21 508.414 77.8293 
-0.4015 398.165 4.42369 7351.41 10 501.217 0 
-0.4007 293.416 6.51981 7426.75 20 256.826 79.0455 
-0.3999 301.885 7.3788 7345.28 22 358.106 114.913 
-0.3991 283.103 8.17786 7395.53 26 321.712 91.6271 
-0.3983 328.503 7.66442 7318.6 21 332.555 77.8293 
-0.3975 287.559 6.38967 7373.57 20 365.779 157.604 
-0.3967 253.644 6.19968 7411.88 22 276.02 153.406 
-0.3959 426.329 10.4205 7437.64 22 263.42 211.093 
-0.3951 248.714 4.97386 7426.2 18 427.247 81.8019 
-0.3943 218.923 5.351 7346.92 22 259.044 189.669 
-0.3935 228.737 4.32023 7381.53 17 251.316 166.01 
-0.3927 281.395 5.3148 7349.03 17 324.499 0 
-0.3919 256.355 4.55704 7445.48 16 355.239 193.869 
-0.3911 232.044 5.15611 7354.41 20 340.26 0 
-0.3903 230.755 5.89658 7392.28 23 389.756 171.12 
-0.3895 304.101 8.10868 7427.61 24 284.821 223.99 
-0.3887 267.473 3.56601 7453.83 12 257.973 96.1789 
-0.3879 294.107 7.18868 7388.79 22 389.317 98.1572 
-0.3871 346.743 6.93428 7382.36 18 264.049 81.4807 
-0.3863 290.749 5.16844 7435.41 16 405.047 196.935 
-0.3855 174.198 5.22551 7334.93 27 366.286 144.2 
-0.3847 248.589 4.41899 7402.07 16 313.6 239.167 
-0.3839 230.817 4.3595 7353.16 17 284.732 84.0885 
-0.3831 276.01 6.74636 7464.5 22 304.773 76.5158 
-0.3823 272.019 5.1377 7392.16 17 179.112 0 
-0.3815 296.122 8.22493 7424.63 25 339.288 73.6366 
-0.3807 241.633 4.02689 7345.5 15 440.558 87.039 
-0.3799 301.412 7.36725 7365.68 22 291.637 0 
-0.3791 302.674 5.7167 7436.92 17 386.413 108.49 
-0.3783 228.427 5.58331 7437.32 22 275.869 153.76 
-0.3775 354.159 7.0826 7380.8 18 398.44 81.8019 
-0.3767 262.294 5.24543 7246.4 18 348.819 81.8019 
-0.3759 307.789 9.23289 7388.67 27 399.217 72.1001 
-0.3751 285.766 4.44488 7456.81 14 431.759 88.5933 
-0.3743 220.776 4.90571 7378.43 20 272.294 79.0455 
-0.3735 340.847 8.70982 7439.73 23 394.446 0 
-0.3727 314.591 7.68935 7387.66 22 261.453 77.1923 
-0.3719 187.797 4.38156 7413.97 21 297.337 99.4156 
-0.3711 215.47 4.30904 7388.4 18 258.899 82.4105 
-0.3703 206.246 5.49942 7496.84 24 361.463 149.359 
-0.3695 268.084 7.44614 7366.05 25 409.425 92.9674 
-0.3687 343.275 7.6277 7329.72 20 334.038 0 
-0.3679 238.163 5.02746 7454.28 19 361.124 0 
-0.3671 319.129 9.21852 7381.11 26 334.989 72.9075 
-0.3663 216.786 4.57621 7479.39 19 270.729 102.766 
-0.3655 192.506 3.20817 7331.17 15 455.668 0 
-0.3647 328.813 7.30635 7478.94 20 317.116 79.4976 
-0.3639 296.815 5.93581 7258.2 18 298.167 82.4105 
-0.3631 330.598 5.87681 7371.74 16 348.808 0 
-0.3623 322.83 7.53208 7406.91 21 278.596 156.064 
-0.3615 352.864 8.62485 7436.78 22 213.592 0 
-0.3607 266.942 5.63498 7357.05 19 247.133 161.267 
-0.3599 242.716 6.47189 7417.19 24 323.606 74.8155 
-0.3591 219.239 3.89727 7398.11 16 391.011 110.269 
-0.3583 328.604 11.6827 7397.77 32 291.822 68.671 
-0.3575 176.9 3.5377 7434.95 18 282.712 164.227 
-0.3567 240.029 5.06686 7510.95 19 527.894 80.0856 
-0.3559 322.844 5.73896 7358.57 16 337.951 0 
-0.3551 231.631 4.63224 7404.71 18 209.967 81.8019 
-0.3543 193.455 3.00904 7345.6 14 209.203 89.1941 
-0.3535 256.255 5.69408 7383.79 20 356.962 79.4976 
-0.3527 243.249 6.75636 7362.89 25 315.03 200.636 
-0.3519 306.837 4.77262 7397.41 14 185.363 178.388 
-0.3511 312.707 6.60104 7312.29 19 434.665 80.3645 
-0.3503 370.54 8.23354 7399.57 20 300.32 0 
-0.3495 267.249 7.12604 7409.43 24 248.483 74.6794 
-0.3487 300.684 6.34723 7490.71 19 303.09 208.602 
-0.3479 228.628 3.04812 7366.88 12 276.605 0 
-0.3471 336.184 8.96415 7440.3 24 370.714 0 
-0.3463 241.339 5.89891 7419.48 22 378.857 76.5158 
-0.3455 275.387 5.50728 7315.25 18 311.829 0 
-0.3447 234.561 3.90902 7378.67 15 309.78 86.531 
-0.3439 247.02 5.21444 7261.22 19 381.962 80.8879 
-0.3431 297.243 5.28388 7436.11 16 289.096 85.1125 
-0.3423 295.709 6.57076 7397.12 20 436.677 79.0455 
-0.3415 311.256 5.18717 7421.14 15 263.501 87.5423 
-0.3407 329.747 8.79252 7436.49 24 313.181 0 
-0.3399 273.465 7.29178 7402.79 24 274.21 187.226 
-0.3391 274.918 7.02509 7348.85 23 293.538 171.758 
-0.3383 298.286 7.29082 7384.34 22 262.822 266.136 
-0.3375 216.968 3.85688 7364.7 16 322.723 251.858 
-0.3367 378.179 6.30246 7373.09 15 393.831 174.078 
-0.3359 266.387 5.3273 7406.45 18 392.515 185.674 
-0.3351 279.368 4.34536 7355.93 14 474.67 210.378 
-0.3343 294.433 6.21528 7376.38 19 350.267 183.131 
-0.3335 246.115 6.83597 7407.59 25 413.574 182.619 
-0.3327 252.318 8.97055 7396.91 32 436.199 178.988 
-0.3319 302.262 7.72384 7432.75 23 347.766 75.4912 
-0.3311 257.001 8.28044 7412.59 29 348.239 141.077 
-0.3303 209.592 4.6572 7467.53 20 265.63 179.752 
-0.3295 251.997 8.11923 7470.52 29 299.423 158.072 
-0.3287 332.262 8.12128 7330.32 22 403.977 249.531 
-0.3279 349.217 6.20778 7399.19 16 255.037 110.269 
-0.3271 287.298 4.78791 7395.57 15 410.477 173.062 
-0.3263 272.261 7.25968 7442.45 24 421.959 169.219 
-0.3255 196.119 3.26838 7371.22 15 348.422 87.039 
-0.3247 270.182 7.20426 7541.61 24 292.039 149.88 
-0.3239 270.84 6.61998 7367.15 22 336.136 240.885 
-0.3231 261.991 5.82154 7424.04 20 339.409 0 
-0.3223 211.129 6.80249 7428.69 29 353.666 101.822 
-0.3215 242.612 4.31274 7277.9 16 365.884 85.9507 
-0.3207 195.613 3.6946 7406.94 17 244.907 168.777 
-0.3199 273.294 5.16178 7332.31 17 195.599 0 
-0.3191 263.076 5.55337 7376.25 19 200.212 217.243 
-0.3183 256.593 6.55683 7395.58 23 268.86 75.8112 
-0.3175 270.228 4.50343 7397.08 15 444.256 113.351 
-0.3167 301.122 6.02194 7409.28 18 319.106 162.961 
-0.3159 253.199 5.06356 7452.78 18 347.464 81.8019 
-0.3151 198.264 3.08386 7376.37 14 279.222 89.7945 
-0.3143 294.613 7.20105 7353.81 22 282.601 77.0444 
-0.3135 281.06 6.24526 7402.21 20 448.09 79.4976 
-0.3127 275.338 5.81221 7351.5 19 246.908 160.729 
-0.3119 204.8 7.50872 7442.68 33 374.22 166.162 
-0.3111 262.578 5.54285 7316.08 19 258.464 80.3645 
-0.3103 274.744 6.71541 7361.65 22 241.838 192.885 
-0.3095 293.433 7.82424 7354.55 24 415.517 224.353 
-0.3087 349.495 6.21273 7484.1 16 251.7 84.6795 
-0.3079 285.166 6.01967 7464.5 19 272.045 80.8879 
-0.3071 410.648 6.38733 7399.02 14 311.998 119.992 
-0.3063 262.216 8.73979 7352.79 30 313.152 87.5423 
-0.3055 332.962 10.358 7377.78 28 360.819 160.232 
-0.3047 324.565 6.85136 7451.82 19 334.387 0 
-0.3039 271.583 6.03468 7483.81 20 458.625 79.4976 
-0.3031 272.218 4.83902 7422.45 16 261.073 131.704 
-0.3023 278.254 6.8012 7432.2 22 347.425 206.079 
-0.3015 248.292 6.62057 7401.66 24 451.759 149.631 
-0.3007 421.78 8.4349 7398.93 18 272 105.023 
-0.2999 204.491 4.31668 7398.6 19 286.396 80.0856 
-0.2991 343.777 11.0763 7436.37 29 282.298 114.354 
-0.2983 204.67 3.63827 7292.07 16 267.358 85.1125 
-0.2975 261.328 6.38748 7373.05 22 303.004 0 
-0.2967 256.379 5.98167 7367.19 21 284.165 77.6162 
-0.2959 209.923 3.49842 7430.72 15 493.795 112.106 
-0.2951 279.148 5.58249 7431.86 18 282.335 163.604 
-0.2943 206.064 5.26563 7359.25 23 260.603 96.436 
-0.2935 352.233 7.82674 7322.92 20 278.627 158.091 
-0.2927 257.475 4.57695 7476.15 16 248.142 193.869 
-0.2919 304.664 8.46219 7471.21 25 303.543 73.885 
-0.2911 299.994 7.99918 7386.45 24 396.453 74.5338 
-0.2903 262.066 6.11435 7409.75 21 353.442 155.659 
-0.2895 320.813 5.34644 7401.5 15 288.456 86.531 
-0.2887 228.347 4.56656 7364.74 18 255.755 0 
-0.2879 251.656 6.15108 7341.82 22 252.682 76.5158 
-0.2871 206.819 5.97426 7401.63 26 358.396 163.703 
-0.2863 242.967 3.77917 7500.98 14 427.261 300.587 
-0.2855 393.08 7.86094 7421.44 18 372.353 185.674 
-0.2847 333.228 9.25556 7410.79 25 327.088 92.5717 
-0.2839 337.082 10.4861 7384.54 28 328.363 89.4948 
-0.2831 248.005 4.40861 7359 16 259.248 0 
-0.2823 284.364 6.00275 7394.82 19 226.603 80.6333 
-0.2815 247.567 6.87628 7429.01 25 254.754 166.852 
-0.2807 381.171 5.92883 7400.26 14 431.247 89.7945 
-0.2799 194.77 4.32787 7451.37 20 283.385 117.785 
-0.2791 222.956 4.95417 7453.91 20 422.061 196.588 
-0.2783 173.416 3.27536 7354.42 17 323.415 83.7397 
-0.2775 207.181 5.06399 7422.54 22 265.505 76.7031 
-0.2767 273.241 6.67866 7378.81 22 437.06 173.065 
-0.2759 175.003 4.86079 7382.66 25 351.594 108.734 
-0.2751 383.993 6.82598 7372.47 16 344.119 0 
-0.2743 217.016 3.85773 7430.74 16 325.617 0 
-0.2735 293.938 5.22512 7461.67 16 303.519 0 
-0.2727 293.137 8.79338 7423.95 27 361.241 71.9989 
-0.2719 226.941 5.54699 7376.43 22 492.103 96.5489 
-0.2711 164.769 3.47818 7481.9 19 243.564 0 
-0.2703 195.241 3.90449 7432.5 18 280.119 81.4807 
-0.2695 336.971 9.73392 7434.58 26 336.019 73.0127 
-0.2687 234.285 6.76766 7403.48 26 360.609 164.64 
-0.2679 216.949 2.89241 7377.61 12 284.887 187.072 
-0.2671 309.804 7.22816 7396.12 21 255.587 78.0321 
-0.2663 289.93 6.12023 7436.33 19 303.689 0 
-0.2655 147.082 2.61456 7423.95 16 433.24 169.359 
-0.2647 278.896 4.95774 7451 16 434.975 0 
-0.2639 300.208 5.00305 7423.8 15 298.413 0 
-0.2631 262.456 6.41507 7391.1 22 342.815 173.065 
-0.2623 250.19 4.72541 7423.35 17 405.446 83.0049 
-0.2615 245.682 6.55097 7459.18 24 199.973 168.646 
-0.2607 307.019 6.13987 7393.26 18 288.513 227.486 
-0.2599 298.248 5.96447 7493.01 18 343.687 0 
-0.2591 254.975 7.08205 7390.57 25 359.261 147.987 
-0.2583 184.586 4.10158 7388.86 20 437.579 79.2785 
-0.2575 303.789 5.73776 7380.9 17 192.495 83.0049 
-0.2567 332.704 5.54461 7533.85 15 197.219 87.039 
-0.2559 224.395 5.23545 7396.72 21 296.792 78.5433 
-0.2551 178.159 5.1464 7297.73 26 359.163 119.07 
-0.2543 323.338 4.67005 7359.42 13 261.641 119.07 
-0.2535 230.369 6.14266 7416.91 24 392.461 187.072 
-0.2527 258.224 6.02472 7498.78 21 263.618 116.331 
-0.2519 289.036 7.38585 7422.78 23 302.764 94.9884 
-0.2511 303.945 6.41607 7306 19 239.085 0 
-0.2503 277.43 4.93167 7390.36 16 383.001 85.5383 
-0.4993 209.818 4.66222 7445.75 20 299.703 158.091 
-0.4985 387.654 6.46036 7429.61 15 370.46 202.203 
-0.4977 207.729 5.3082 7320.85 23 377.768 95.4641 
-0.4969 358.335 7.56422 7439.94 19 342.688 103.523 
-0.4961 232.383 5.67999 7322.12 22 257.031 0 
-0.4953 305.039 8.1337 7467.25 24 258.159 110.639 
-0.4945 254.579 4.52548 7359.13 16 215.17 170.225 
-0.4937 302.446 7.72852 7371.3 23 250.042 303.196 
-0.4929 285.009 6.01635 7351.84 19 378.699 0 
-0.4921 364.42 8.9073 7441.23 22 319.33 76.8802 
-0.4913 212.554 4.25073 7384.61 18 484.057 0 
-0.4905 207.153 4.14272 7437.23 18 313.675 81.8019 
-0.4897 236.507 5.25527 7393.07 20 236.387 158.091 
-0.4889 353.842 7.07626 7376.65 18 244.525 104.194 
-0.4881 336.511 12.7116 7404.62 34 416.95 150.937 
-0.4873 300.073 6.00095 7461.05 18 137.8 81.8019 
-0.4865 193.747 3.87462 7442.88 18 313.782 0 
-0.4857 182.726 2.43614 7255.91 12 409.067 0 
-0.4849 314.387 8.73223 7453.78 25 446.661 92.5717 
-0.4841 314.351 6.98499 7398.93 20 223.894 0 
-0.4833 193.368 3.6522 7414.01 17 308.407 83.0049 
-0.4825 255.733 7.67134 7361.16 27 304.802 117.164 
-0.4817 244.485 5.70417 7413.93 21 241.337 177.448 
-0.4809 265.939 5.02288 7552.95 17 298.821 0 
-0.4801 234.233 5.20474 7337.15 20 380.199 79.0455 
-0.4793 287.079 5.42215 7438.89 17 311.211 83.7397 
-0.4785 297.519 4.62769 7482.59 14 213.584 177.187 
-0.4777 228.595 3.55562 7446.55 14 343.559 115.375 
-0.4769 218.612 6.5578 7363.75 27 269.834 72.1927 
-0.4761 227.737 3.03624 7421.61 12 331.314 255.928 
-0.4753 270.494 6.61153 7370.68 22 378.653 97.0757 
-0.4745 261.769 6.10743 7399.56 21 201.865 77.8293 
-0.4737 286.795 6.69131 7458.46 21 444.256 0 
-0.4729 266.579 7.40436 7378.94 25 240.868 166.852 
-0.4721 269.531 4.4918 7350.85 15 373.799 87.039 
-0.4713 212.067 4.71221 7385.42 20 316.958 79.2785 
-0.4705 271.449 7.84121 7359.4 26 296.923 91.267 
-0.4697 301.793 7.04126 7461.91 21 275.699 98.2313 
-0.4689 272.592 3.93711 7434.12 13 279.27 91.6271 
-0.4681 219.086 6.0852 7372.09 25 222.221 147.531 
-0.4673 290.444 6.13109 7297.88 19 209.025 80.3645 
-0.4665 206.383 4.5859 7384.24 20 329.556 79.0455 
-0.4657 215.383 4.78588 7368.26 20 297.121 117.785 
-0.4649 279.808 4.04134 7411.59 13 335.301 91.6271 
-0.4641 265.18 6.48163 7371.68 22 264.718 76.8802 
-0.4633 314.958 10.4977 7319.53 30 295.322 69.9986 
-0.4625 438.535 9.25719 7413.26 19 355.876 161.723 
-0.4617 262.596 6.41848 7484.43 22 254.225 0 
-0.4609 243.74 6.22838 7348.9 23 306.328 76.1898 
-0.4601 222.87 3.71418 7453.7 15 302.605 87.5423 
-0.4593 309.855 6.88509 7410.76 20 285.66 79.0455 
-0.4585 231.677 6.43492 7435.47 25 299.862 107.412 
-0.4577 159.726 2.83933 7377.88 16 506.932 170.225 
-0.4569 250.696 4.45645 7307.44 16 297.415 84.6795 
-0.4561 307.68 7.1786 7495.73 21 361.411 115.375 
-0.4553 217.66 3.86918 7432.99 16 321.128 110.269 
-0.4545 265.724 7.38059 7406.24 25 280.29 166.852 
-0.4537 348.023 8.11986 7414.18 21 316.702 77.8293 
-0.4529 295.378 5.25073 7271.32 16 210.233 0 
-0.4521 363.075 11.2947 7421.37 28 362.988 89.1941 
-0.4513 239.902 5.59724 7483.77 21 384.672 0 
-0.4505 228.141 4.81591 7363.29 19 404.114 80.6333 
-0.4497 152.94 3.73823 7478.7 22 308.111 0 
-0.4489 227.801 4.30255 7376.64 17 302.176 166.753 
-0.4481 263.082 7.30723 7387.13 25 260.678 92.9674 
-0.4473 185.98 4.33918 7449.47 21 314.088 78.0321 
-0.4465 251.982 5.59914 7332.41 20 273.508 79.2785 
-0.4457 293.447 7.49858 7412.47 23 486.709 0 
-0.4449 308.304 9.59088 7488.84 28 432.088 160.614 
-0.4441 269.294 5.38543 7430.6 18 347.268 0 
-0.4433 319.826 7.10665 7430.2 20 383.423 0 
-0.4425 316.906 8.45011 7413.91 24 246.522 93.967 
-0.4417 221.356 5.90233 7410.88 24 321.913 74.9398 
-0.4409 255.542 5.67824 7521.93 20 385.528 78.8022 
-0.4401 221.472 2.70665 7547.59 11 452.612 224.722 
-0.4393 222.182 4.19643 7415.43 17 321.032 0 
-0.4385 323.745 8.63247 7442.97 24 289.87 94.4034 
-0.4377 293.849 8.1618 7401.94 25 202.469 166.852 
-0.4369 278.543 6.80825 7368.07 22 349.144 76.5158 
-0.4361 361.164 9.22897 7321.89 23 313.837 0 
-0.4353 281.893 5.95058 7458.37 19 297.409 161.267 
-0.4345 278.035 6.79585 7444.57 22 379.869 0 
-0.4337 340.835 6.43747 7386.82 17 225.182 83.3767 
-0.4329 264.827 5.59032 7425.88 19 270.889 80.3645 
-0.4321 236.899 5.79039 7449.15 22 392.081 76.5158 
-0.4313 242.912 5.39759 7484.19 20 225.236 78.8022 
-0.4305 251.906 5.31757 7507.77 19 227.942 80.3645 
-0.4297 253.082 7.87299 7398.14 28 241.176 71.2486 
-0.4289 302.804 7.06483 7397.99 21 329.23 78.2215 
-0.4281 214.531 4.29026 7388.59 18 275.405 81.4807 
-0.4273 344.987 9.19889 7331.45 24 506.273 149.359 
-0.4265 252.539 5.89208 7293.88 21 283.729 77.6162 
-0.4257 283.258 4.40587 7407.38 14 177.487 0 
-0.4249 358.974 7.5777 7353.16 19 229.171 184.156 
-0.4241 337.246 6.36968 7410.94 17 318.569 233.03 
-0.4233 258.249 6.59916 7386.26 23 413.13 171.758 
-0.4225 239.242 4.78444 7372.87 18 182.11 163.604 
-0.4217 285.969 5.40119 7409.51 17 238.903 0 
-0.4209 268.85 6.87003 7360.87 23 352.279 151.908 
-0.4201 488.759 11.4034 7306.96 21 232.114 78.0321 
-0.4193 255.441 7.095 7416.3 25 366.355 185.143 
-0.4185 362.459 8.45668 7388.8 21 441.749 0 
-0.4177 230.855 5.38616 7424.66 21 187.353 155.232 
-0.4169 261.869 6.40072 7367.23 22 264.567 97.0757 
-0.4161 340.855 9.46741 7363.36 25 316.489 0 
-0.4153 212.102 3.53474 7409.65 15 449.325 86.531 
-0.4145 189.152 3.57257 7411.24 17 322.063 83.3767 
-0.4137 325.918 4.70731 7313.07 13 243.996 212.403 
-0.4129 244.654 5.97992 7396.67 22 355.109 153.76 
-0.4121 273.394 6.37866 7370.98 21 390.6 78.0321 
-0.4113 207.236 5.06534 7392.02 22 399.336 190.72 
-0.4105 404.77 11.2427 7420.69 25 279.711 181.049 
-0.4097 353.047 12.5517 7380.36 32 186.879 68.671 
-0.4089 276.519 6.14435 7462.29 20 278.108 78.8022 
-0.4081 262.592 5.25141 7408.73 18 249.42 0 
-0.4073 303.379 6.40413 7358.42 19 257.234 182.117 
-0.4065 394.065 5.25377 7449.12 12 319.206 95.2879 
-0.4057 310.443 7.58796 7401.09 22 394.148 268.623 
-0.4049 195.17 5.20411 7350.31 24 302.862 93.967 
-0.4041 289.328 5.14318 7274.38 16 425.449 338.663 
-0.4033 370.613 9.88218 7440.76 24 235.495 74.8155 
-0.4025 249.363 6.09503 7446.04 22 271.431 175.202 
-0.4017 269.637 6.291 7437.5 21 331.551 0 
-0.4009 317.35 5.6413 7465.17 16 276.67 85.9507 
-0.4001 234.852 8.34958 7382.79 32 397.844 137.439 
-0.3993 285.846 6.03403 7461.72 19 276.967 184.156 
-0.3985 331.847 6.2677 7425.06 17 285.455 0 
-0.3977 302.936 6.73135 7407.63 20 209.776 158.091 
-0.3969 359.898 5.99781 7438.44 15 257.765 87.039 
-0.3961 304.122 8.44712 7357.48 25 325.246 92.5717 
-0.3953 292.129 7.46489 7411.51 23 303.313 170.48 
-0.3945 256.299 6.83407 7386.84 24 290.959 74.5338 
-0.3937 253.512 7.32306 7379.87 26 282 0 
-0.3929 247.184 4.94326 7372.39 18 348.56 81.4807 
-0.3921 196.347 4.36291 7256.52 20 356.09 201.413 
-0.3913 315.658 6.66334 7435.96 19 293.496 80.6333 
-0.3905 269.152 8.37292 7471.18 28 262.482 160.614 
-0.3897 280.637 4.6769 7358.93 15 239.396 87.5423 
-0.3889 136.855 2.88893 7387.83 19 349.329 80.0856 
-0.3881 286.802 4.77964 7381.71 15 320.93 133.899 
-0.3873 219.806 6.34942 7398.63 26 286.647 145.815 
-0.3865 252.803 4.77477 7376.24 17 344.292 83.7397 
-0.3857 246.065 9.02163 7397.18 33 274.499 166.544 
-0.3849 277.805 6.79022 7452.09 22 254.387 96.5489 
-0.3841 327.146 7.2693 7306.95 20 237.418 180.656 
-0.3833 339.961 5.66555 7427.95 15 276.202 87.039 
-0.3825 210.724 4.68236 7418.99 20 211.072 178.855 
-0.3817 308.819 7.89138 7365.26 23 409.342 0 
-0.3809 364.717 9.31977 7391.69 23 311.005 95.4641 
-0.3801 319.559 6.74568 7417.37 19 361.265 80.3645 
-0.3793 323.909 4.6783 7496.74 13 332.409 0 
-0.3785 199.633 4.6577 7436.47 21 290.896 0 
-0.3777 386.233 8.58224 7422.2 20 275.246 0 
-0.3769 417.05 7.87696 7355.64 17 244.331 167.479 
-0.3761 264.435 6.16963 7314.3 21 347.679 155.659 
-0.3753 240.436 3.7398 7453.64 14 495.906 178.388 
-0.3745 186.215 4.55155 7327.28 22 297.881 173.779 
-0.3737 275.416 5.50786 7348.55 18 347.677 0 
-0.3729 335.584 7.08395 7317.58 19 507.38 0 
-0.3721 293.719 8.15819 7468.66 25 279.59 73.7654 
-0.3713 345.09 9.20164 7414.48 24 391.396 74.8155 
-0.3705 220.311 5.14016 7409.84 21 356.864 77.6162 
-0.3697 336.736 6.73416 7483.31 18 347.666 81.4807 
-0.3689 339.81 7.55071 7341.58 20 387.65 0 
-0.3681 196.883 3.71859 7402.59 17 339.729 83.7397 
-0.3673 201.244 3.57738 7430.86 16 315.599 84.6795 
-0.3665 220.879 4.66262 7343.42 19 282.442 80.0856 
-0.3657 285.918 3.1766 7430.31 10 328.466 100.052 
-0.3649 335.546 8.57434 7453.06 23 304.317 111.882 
-0.3641 262.376 6.99611 7402.41 24 258.992 75.142 
-0.3633 225.684 5.01478 7420.36 20 260.965 355.935 
-0.3625 348.074 5.80075 7338.48 15 229.071 86.531 
-0.3617 220.485 4.16438 7342.81 17 359.389 166.753 
-0.3609 251.356 5.86447 7472.26 21 349.97 117.326 
-0.3601 299.261 7.97962 7357.13 24 262.727 74.9398 
-0.3593 264.269 5.57855 7478.18 19 426.811 102.766 
-0.3585 167.36 2.78911 7454.72 15 392.295 86.531 
-0.3577 261.268 6.38603 7367.69 22 303.783 173.065 
-0.3569 319.49 5.67936 7413.84 16 396.86 85.1125 
-0.3561 268.793 6.56995 7465.36 22 389.431 0 
-0.3553 262.592 5.2514 7436.47 18 342.204 82.4105 
-0.3545 251.086 6.13715 7343.36 22 301.025 0 
-0.3537 306.033 6.12014 7422.26 18 385.682 0 
-0.3529 182.384 4.66053 7373.19 23 262.875 95.9469 
-0.3521 407.149 11.3087 7469.01 25 304.013 185.935 
-0.3513 395.96 3.95927 7299.65 9 278.415 107.683 
-0.3505 238.344 6.0905 7369.75 23 223.452 75.4912 
-0.3497 134.958 2.09918 7484.67 14 269.483 0 
-0.3489 183.131 4.27271 7500.93 21 356.709 0 
-0.3481 241.502 4.29302 7520.97 16 325.005 0 
-0.3473 336.016 7.09309 7378.17 19 489.221 103.523 
-0.3465 296.969 6.59877 7417.15 20 390.678 79.4976 
-0.3457 276.459 8.60024 7444.18 28 250.739 174.576 
-0.3449 329.282 8.78012 7360.68 24 338.012 168.07 
-0.3441 283.782 8.19746 7418.42 26 236.702 309.942 
-0.3433 302.083 10.4042 7467.5 31 323.552 85.8159 
-0.3425 302.679 6.05307 7362.45 18 266.22 81.4807 
-0.3417 253.964 5.07886 7475.35 18 236.04 206.432 
-0.3409 262.309 7.86861 7506.19 27 320.232 178.815 
-0.3401 303.891 5.73969 7393.5 17 463.695 0 
-0.3393 201.736 4.70679 7459.59 21 393.639 77.8293 
-0.3385 244.748 5.98223 7400.64 22 247.441 0 
-0.3377 270.411 6.30906 7370.88 21 304.669 192.991 
-0.3369 279.145 6.20271 7371.71 20 218.532 157.604 
-0.3361 193.408 3.86784 7376.5 18 522.419 164.227 
-0.3353 246.57 6.02675 7427.28 22 399.299 174.492 
-0.3345 242.498 4.58014 7347.76 17 368.92 0 
-0.3337 357.757 7.15455 7439.09 18 255.945 0 
-0.3329 296.486 8.89384 7414.59 27 303.346 0 
-0.3321 235.914 4.19368 7371.82 16 191.755 0 
-0.3313 170.792 3.79506 7472.55 20 183.679 158.091 
-0.3305 241.72 5.3711 7408.43 20 337.271 100.707 
-0.3297 280.661 4.36547 7325.34 14 372.945 178.388 
-0.3289 313.301 6.61359 7359.84 19 302.226 0 
-0.3281 223.716 3.97684 7241.04 16 308.267 85.1125 
-0.3273 253.24 4.22032 7474.72 15 242.1 0 
-0.3265 238.713 5.30429 7309.57 20 380.486 101.378 
-0.3257 291.223 5.17687 7283.5 16 210.235 85.1125 
-0.3249 369.866 11.506 7398.89 28 405.746 71.2486 
-0.3241 209.344 3.72136 7479.43 16 253.693 84.6795 
-0.3233 211.731 5.41046 7387.9 23 246.318 206.38 
-0.3225 201.46 2.46209 7402.6 11 321.229 195.224 
-0.3217 285.64 5.39497 7519.36 17 300.374 0 
-0.3209 261.881 5.23719 7414.16 18 332.827 373.597 
-0.3201 244.841 6.52854 7431.22 24 387.055 149.359 
-0.3193 259.998 4.6218 7377 16 446.084 85.1125 
-0.3185 256.621 6.55755 7430.46 23 279.05 150.982 
-0.3177 301.239 7.363 7447.59 22 433.882 174.492 
-0.3169 263.334 3.21825 7327.38 11 230.193 97.612 
-0.3161 249.531 5.26743 7468.97 19 209.465 80.0856 
-0.3153 270.419 6.00882 7305.09 20 377.388 117.785 
-0.3145 254.367 5.36952 7421.85 19 367.249 0 
-0.3137 231.722 3.34681 7366.58 13 185.092 209.98 
-0.3129 255.87 4.8327 7335.4 17 388.265 83.3767 
-0.3121 382.644 9.77787 7413.54 23 312.045 95.4641 
-0.3113 267.207 5.93743 7518.99 20 304.584 79.6983 
-0.3105 258.62 6.60863 7402.71 23 306.456 0 
-0.3097 309.389 9.28091 7425.68 27 207.224 72.1001 
-0.3089 214.318 3.57167 7383.39 15 304.748 0 
-0.3081 313.391 7.66003 7392.95 22 327.969 76.7031 
-0.3073 301.372 6.36177 7543.19 19 227.117 0 
-0.3065 308.779 3.77365 7406.25 11 438.271 128.173 
-0.3057 192.752 5.99623 7432.02 28 308.851 0 
-0.3049 233.013 3.62434 7476.22 14 463.43 0 
-0.3041 232.811 6.20778 7380.88 24 242.403 93.536 
-0.3033 275.64 5.20609 7433.06 17 347.209 83.0049 
-0.3025 190.106 4.01301 7416.62 19 250.575 80.8879 
-0.3017 175.779 4.49175 7432.29 23 368.706 151.312 
-0.3009 306.546 9.53619 7405.19 28 301.289 142.677 
-0.3001 374.667 4.99515 7414 12 269.5 94.4034 
-0.2993 322.689 7.52879 7357.4 21 254.063 77.8293 
-0.2985 261.312 5.51612 7334.19 19 248.808 0 
-0.2977 244.951 5.17075 7307.89 19 475.479 80.3645 
-0.2969 312.734 5.90671 7337.64 17 401.8 190.887 
-0.2961 346.011 4.61309 7444.01 12 173.049 0 
-0.2953 311.466 5.88276 7456.23 17 331.213 83.0049 
-0.2945 291.493 3.88625 7422.33 12 216.1 0 
-0.2937 260.83 7.24468 7337.37 25 310.957 92.1796 
-0.2929 232.755 4.13753 7419.1 16 384.305 0 
-0.2921 195.096 3.25133 7443.97 15 282.562 0 
-0.2913 232.71 5.42945 7387.17 21 208.171 196.582 
-0.2905 298.242 7.28974 7504.41 22 298.441 76.8802 
-0.2897 258.997 6.33052 7488.69 22 311.693 0 
-0.2889 365.297 6.89947 7349.79 17 417.115 166.01 
-0.2881 251.61 5.31132 7436.42 19 339.944 102.032 
-0.2873 326.246 8.33671 7418.2 23 330.081 0 
-0.2865 245.509 4.36424 7435.38 16 288.117 0 
-0.2857 226.513 4.27823 7253.69 17 229.094 166.01 
-0.2849 207.087 3.68125 7400.61 16 247.556 0 
-0.2841 258.382 6.60254 7385.67 23 392.182 171.12 
-0.2833 247.103 4.94164 7236.73 18 436.651 105.881 
-0.2825 291.392 6.47483 7408.76 20 353.495 101.378 
-0.2817 309.115 8.58582 7401.18 25 281.243 73.885 
-0.2809 242.003 4.30192 7382.71 16 416.206 0 
-0.2801 230.719 6.66466 7352.57 26 406.523 107.59 
-0.2793 227.542 5.56168 7396.8 22 290.863 154.089 
-0.2785 342.284 7.60569 7439.14 20 384.815 101.378 
-0.2777 199.567 5.54307 7369.1 25 323.368 333.657 
-0.2769 245.33 6.5416 7413.33 24 298.874 218.256 
-0.2761 332.593 5.54275 7410.57 15 385.052 87.5423 
-0.2753 188.239 4.81014 7410.32 23 320.451 75.6561 