ITEM: TIMESTEP
8000
ITEM: NUMBER OF CELLS
5000
ITEM: BOX BOUNDS or pp pp
-0.5 0.5
0 0.0002
-0.5 0.5
ITEM: CELLS xc c_1[1] c_1[2] c_2[1] c_2[2] c_2[3] c_3[1] 
-0.4999 211.222 5.16278 7516.86 22 316.191 212.525 
-0.4991 297.979 4.9659 7428.89 15 409.991 87.039 
-0.4983 250.039 5.83376 7407.33 21 491.319 77.8293 
-0.4975 267.805 7.4384 7420.3 25 383.075 123.948 
-0.4967 302.794 7.40102 7336.13 22 302.715 114.913 
-0.4959 267.639 8.0285 7367.4 27 369.267 72.1001 
-0.4951 267.062 7.12107 7338.72 24 472.918 0 
-0.4943 182.814 2.84354 7359.31 14 336.99 0 
-0.4935 232.642 5.42786 7386.89 21 266.098 197.634 
-0.4927 383.106 8.93839 7367.65 21 393.624 155.182 
-0.4919 247.661 6.3286 7382.73 23 319.539 95.9469 
-0.4911 285.192 6.02021 7404.14 19 177.246 80.0856 
-0.4903 300.541 10.685 7434.98 32 256.866 68.7195 
-0.4895 385.718 9.42788 7383.48 22 261.484 173.779 
-0.4887 438.139 8.76206 7429.85 18 211.507 189.178 
-0.4879 241.701 5.10216 7309.15 19 257.958 102.766 
-0.4871 264.605 5.87962 7265.11 20 276.415 157.604 
-0.4863 243.99 5.9637 7329.45 22 282.22 206.079 
-0.4855 295.455 4.59558 7403.11 14 181.104 0 
-0.4847 320.28 8.54009 7307.5 24 197.172 93.536 
-0.4839 187.573 3.33435 7366.42 16 210.052 0 
-0.4831 337.778 9.38193 7434.25 25 363.944 0 
-0.4823 272.728 7.27215 7381.48 24 407.788 149.583 
-0.4815 357.695 8.74293 7361.95 22 314.445 0 
-0.4807 324.655 5.04977 7398.06 14 254.957 89.1941 
-0.4799 384.058 8.10722 7290.14 19 246.596 102.766 
-0.4791 243.026 4.86012 7350.07 18 238.47 162.961 
-0.4783 364.899 12.5677 7447.06 31 363.481 86.0498 
-0.4775 268.159 5.36273 7405.46 18 306.215 81.8019 
-0.4767 304.993 6.77705 7426.96 20 206.64 100.707 
-0.4759 238.212 5.0285 7494.47 19 222.142 161.267 
-0.4751 279.936 4.04318 7466.92 13 215.576 0 
-0.4743 256.505 4.84469 7409.99 17 296.212 0 
-0.4735 284.184 8.84054 7315.44 28 315.556 0 
-0.4727 187.141 3.11875 7480.56 15 320.871 0 
-0.4719 251.758 3.91591 7392.11 14 282.145 0 
-0.4711 295.735 8.87131 7293.78 27 279.837 177.499 
-0.4703 310.057 5.16718 7458.65 15 422.385 200.39 
-0.4695 192.929 4.28695 7435.56 20 240.356 78.8022 
-0.4687 299.799 7.99398 7376.48 24 301.827 74.6794 
-0.4679 225.653 3.50987 7490.54 14 318.903 0 
-0.4671 220.816 4.66128 7491.6 19 374.478 80.3645 
-0.4663 267.979 8.0387 7409.81 27 337.999 0 
-0.4655 206.332 3.20934 7271.31 14 240.933 89.1941 
-0.4647 288.783 8.66278 7338.73 27 362.402 144.691 
-0.4639 231.57 5.9174 7469.46 23 252.574 75.6561 
-0.4631 310.462 9.65802 7327.18 28 243.657 71.4918 
-0.4623 311.377 8.30269 7400.69 24 285.366 198.969 
-0.4615 262.988 4.67495 7358.73 16 312.288 84.6795 
-0.4607 261.275 6.38618 7430.13 22 460.029 97.0757 
-0.4599 230.501 6.40226 7387.81 25 382.522 0 
-0.4591 185.189 4.93796 7440.73 24 283.734 149.359 
-0.4583 261.457 5.51918 7475.34 19 264.324 160.729 
-0.4575 316.298 5.97401 7344.68 17 238.876 189.573 
-0.4567 225.645 6.0167 7460.84 24 220.772 206.24 
-0.4559 231.837 8.24241 7398.84 32 208.902 84.8966 
-0.4551 402.809 9.39808 7332.14 21 381.618 0 
-0.4543 264.895 7.06329 7432.61 24 316.334 93.967 
-0.4535 203.818 3.62312 7341.98 16 348.678 0 
-0.4527 198.654 4.19346 7365.7 19 324.09 160.171 
-0.4519 216.746 6.74266 7413.41 28 328.437 177.787 
-0.4511 284.96 6.64852 7410.71 21 282.932 117.326 
-0.4503 253.219 5.34528 7428.54 19 369.675 121.603 
-0.4495 443.368 10.3444 7397.65 21 247.445 98.8171 
-0.4487 356.623 9.90538 7446.06 25 370.442 73.7654 
-0.4479 247.603 5.50183 7392.02 20 279.798 0 
-0.4471 326.438 9.42964 7335.69 26 262.548 164.174 
-0.4463 241.287 4.82534 7314.42 18 354.055 105.023 
-0.4455 207.027 4.14019 7398.4 18 277.899 81.4807 
-0.4447 210.328 4.90725 7403.3 21 263.365 78.0321 
-0.4439 378.842 7.1553 7371.21 17 355.808 83.0049 
-0.4431 332.877 8.13631 7326.16 22 368.538 76.7031 
-0.4423 317.938 7.77118 7478.26 22 278.681 174.492 
-0.4415 294.764 5.23981 7492.2 16 279.125 0 
-0.4407 335.602 8.20292 7297.28 22 422.079 255.418 
-0.4399 263.225 6.14141 7451.56 21 413.578 78.0321 
-0.4391 163.29 2.17701 7360.62 12 340.547 93.536 
-0.4383 237.391 4.48369 7419.44 17 374.409 166.753 
-0.4375 237.714 7.13081 7436.19 27 211.282 72.1001 
-0.4367 184.007 4.0887 7372.82 20 315.305 79.2785 
-0.4359 457.088 9.14099 7292.41 18 240.777 162.961 
-0.4351 279.689 5.90405 7396.9 19 380.606 80.0856 
-0.4343 261.703 4.6521 7430.75 16 288.28 85.1125 
-0.4335 282.032 7.20689 7403.01 23 255.585 0 
-0.4327 322.195 6.44337 7418.39 18 301.391 82.1134 
-0.4319 233.338 3.62939 7442.31 14 382.688 0 
-0.4311 308.379 7.53753 7436.48 22 318.901 76.5158 
-0.4303 267.331 4.15813 7311.74 14 290.375 178.388 
-0.4295 248.642 6.90615 7383.7 25 299.427 73.7654 
-0.4287 147.211 2.45332 7384.98 15 255.302 240.506 
-0.4279 277.163 5.85074 7464.12 19 405.72 80.0856 
-0.4271 225.616 6.26658 7410.16 25 303.54 166.337 
-0.4263 247.811 3.85451 7327.36 14 265.024 116.824 
-0.4255 216.853 5.54134 7383.67 23 297.338 76.0813 
-0.4247 258.227 3.44274 7459.93 12 325.86 94.4034 
-0.4239 354.742 6.306 7458.26 16 277.449 0 
-0.4231 357.406 5.95627 7490.52 15 407.263 0 
-0.4223 381.27 7.20116 7465.31 17 222.559 83.7397 
-0.4215 309.547 4.47086 7406.64 13 336.434 90.9094 
-0.4207 221.409 5.16577 7313.84 21 256.453 196.463 
-0.4199 284.318 5.68589 7336.08 18 291.311 0 
-0.4191 305.611 6.79079 7445.69 20 392.615 0 
-0.4183 179.231 3.58432 7367.04 18 337.575 0 
-0.4175 250.428 3.89522 7356.54 14 370.766 208.155 
-0.4167 266.055 5.61625 7338.37 19 320.518 81.1229 
-0.4159 290.971 5.17239 7364.81 16 262.556 0 
-0.4151 273.766 6.08318 7386.82 20 416.535 78.8022 
-0.4143 263.96 5.57202 7458.28 19 388.242 103.523 
-0.4135 347.499 7.72155 7382.26 20 273.176 79.4976 
-0.4127 236.506 4.46696 7493.33 17 298.256 166.753 
-0.4119 236.439 4.72838 7313.71 18 304.213 0 
-0.4111 259.726 5.48265 7463.07 19 288.387 80.3645 
-0.4103 216.46 6.01226 7367.58 25 366.16 221.249 
-0.4095 297.434 4.62636 7468.32 14 371.125 88.5933 
-0.4087 323.955 8.63808 7394 24 399.66 74.8155 
-0.4079 252.508 6.73297 7336.68 24 271.687 0 
-0.4071 220.205 5.13769 7438.07 21 315.661 77.8293 
-0.4063 266.139 6.50509 7365.78 22 344.266 114.913 
-0.4055 222.664 6.67937 7464.42 27 329.135 196.583 
-0.4047 267.575 5.35106 7403.14 18 321.397 82.1134 
-0.4039 372.782 6.21252 7343.28 15 358.871 419.012 
-0.4031 211.795 4.47084 7423.4 19 286.638 0 
-0.4023 282.228 7.2119 7394.89 23 449.556 0 
-0.4015 266.377 6.51089 7327.06 22 260.966 173.779 
-0.4007 231.937 5.41141 7355.44 21 261.878 156.064 
-0.3999 280.855 7.80088 7380.29 25 314.173 73.885 
-0.3991 304.014 8.44413 7407.05 25 244.863 147.77 
-0.3983 291.791 6.4837 7473.79 20 329.398 78.8022 
-0.3975 331.654 6.26406 7417.32 17 336.138 106.568 
-0.3967 303.489 7.75518 7322.22 23 278.211 170.48 
-0.3959 277.378 5.85528 7510.4 19 281.004 0 
-0.3951 248.517 4.1416 7376.45 15 321.411 0 
-0.3943 198.676 3.31099 7311.67 15 318.415 87.039 
-0.3935 339.578 7.92283 7478.98 21 361.506 98.8171 
-0.3927 289.549 3.53864 7390.35 11 419.647 97.612 
-0.3919 285.28 4.43732 7532.69 14 432.934 0 
-0.3911 387.604 6.45953 7411.37 15 336.914 252.672 
-0.3903 274.016 8.82865 7386.36 29 294.474 0 
-0.3895 206.008 5.03533 7388.8 22 411.74 154.089 
-0.3887 272.445 3.63229 7371.32 12 346.963 94.4034 
-0.3879 250.136 7.22555 7340.67 26 299.674 198.589 
-0.3871 208.497 4.1696 7374.74 18 266.525 163.604 
-0.3863 268.666 4.77589 7277.92 16 393.569 169.359 
-0.3855 224.725 3.49543 7465.62 14 277.353 89.1941 
-0.3847 348.687 10.8471 7429.67 28 418.349 71.4199 
-0.3839 275.839 6.12925 7361.25 20 334.863 78.8022 
-0.3831 311.646 5.53991 7438.74 16 285.893 169.304 
-0.3823 249.587 6.1005 7349.7 22 336.639 96.5489 
-0.3815 206.976 3.90921 7386.45 17 283.036 0 
-0.3807 295.689 6.89885 7271.44 21 348.528 0 
-0.3799 305.591 6.11132 7309.82 18 371.075 0 
-0.3791 303.305 8.08746 7372.18 24 452.1 168.646 
-0.3783 225.175 4.7533 7407.72 19 219.351 80.3645 
-0.3775 271.071 6.92679 7349.14 23 332.427 75.8112 
-0.3767 242.454 5.65678 7360.14 21 435.74 0 
-0.3759 277.824 5.55602 7392.59 18 539.296 81.4807 
-0.3751 264.363 5.28682 7448.06 18 248.755 186.825 
-0.3743 215.576 5.02969 7350.57 21 412.672 197.634 
-0.3735 193.831 3.87629 7373.5 18 383.404 81.8019 
-0.3727 290.273 7.41748 7353.41 23 289.459 75.6561 
-0.3719 301.543 5.69534 7390.25 17 257.412 189.573 
-0.3711 262.16 4.36897 7507.34 15 242.891 87.039 
-0.3703 416.194 9.71038 7455.36 21 287.431 78.0321 
-0.3695 251.473 6.70538 7365.34 24 285.634 74.6794 
-0.3687 271.704 5.43364 7340.21 18 340.654 0 
-0.3679 322.037 10.7337 7462.41 30 343.982 69.9355 
-0.3671 331.549 8.4722 7409.53 23 285.62 0 
-0.3663 288.755 5.77463 7398.63 18 412.414 82.1134 
-0.3655 254.627 4.80921 7393.27 17 238.536 83.7397 
-0.3647 336.888 8.23436 7392.71 22 339.077 0 
-0.3639 263.387 6.14518 7331.21 21 453.629 78.3935 
-0.3631 239.548 6.12128 7422.84 23 321.396 75.4912 
-0.3623 261.756 6.97959 7428.43 24 386.809 74.8155 
-0.3615 359.226 8.78035 7374.86 22 326.572 0 
-0.3607 248.461 6.073 7373.96 22 448.855 97.0757 
-0.3599 320.513 6.05363 7354.54 17 351.853 0 
-0.3591 276.672 5.84037 7384.5 19 297.408 205.533 
-0.3583 283.226 8.18139 7393.72 26 386.182 164.64 
-0.3575 202.963 4.28442 7382.67 19 358.629 103.523 
-0.3567 304.93 4.40418 7317.56 13 200.427 90.9094 
-0.3559 313.885 8.71831 7325.66 25 298.213 201.702 
-0.3551 331.39 10.6772 7447.45 29 349.925 216.167 
-0.3543 188.04 3.96941 7283.41 19 320.979 221.181 
-0.3535 240.978 5.35462 7453.97 20 423.715 100.052 
-0.3527 350.082 5.83421 7488.49 15 286.303 173.062 
-0.3519 294.587 5.89125 7438.56 18 384.818 81.4807 
-0.3511 250.043 5.27824 7441.62 19 211.696 0 
-0.3503 339.688 4.5288 7423.45 12 319.852 0 
-0.3495 318.708 7.79 7482.71 22 345.126 174.492 
-0.3487 321.759 7.50709 7307.78 21 307.087 77.8293 
-0.3479 276.182 4.90949 7452.67 16 244.232 169.359 
-0.3471 326.758 10.528 7373.78 29 290.688 176.721 
-0.3463 215.004 3.34422 7416.48 14 246.456 179.589 
-0.3455 247.185 5.76718 7397.9 21 417.933 0 
-0.3447 210.124 6.30318 7373 27 306.747 144.2 
-0.3439 321.771 6.43489 7507.55 18 428.768 104.194 
-0.3431 286.899 6.05624 7344.5 19 340.388 185.189 
-0.3423 363.643 7.67627 7413.67 19 275.71 160.729 
-0.3415 300.391 9.34473 7361.7 28 348.61 88.8933 
-0.3407 190.227 3.17019 7530.31 15 417.2 0 
-0.3399 225.38 5.25843 7402.39 21 266.484 78.2215 
-0.3391 253.421 5.91267 7439.48 21 352.163 176.646 
-0.3383 269.528 4.7912 7358.93 16 352.514 85.1125 
-0.3375 247.839 5.23172 7334.48 19 360.613 204.064 
-0.3367 359.383 7.98562 7377.54 20 372.913 158.995 
-0.3359 314.955 7.34834 7415.11 21 451.419 98.8171 
-0.3351 211.437 4.69822 7426.16 20 302.075 79.0455 
-0.3343 336.826 6.73595 7389.06 18 363.805 82.1134 
-0.3335 291.466 7.12413 7407.89 22 427.226 0 
-0.3327 293.176 9.44598 7368.4 29 330.952 0 
-0.3319 298.288 4.63965 7311.2 14 325.509 0 
-0.3311 256.348 4.55691 7401.53 16 347.029 0 
-0.3303 266.015 10.9353 7412.57 37 326.59 132.067 
-0.3295 342.574 9.89577 7395.61 26 452.991 191.864 
-0.3287 222.818 5.69375 7351.29 23 306.791 151.312 
-0.3279 315.265 7.70584 7325.87 22 255.015 76.7031 
-0.3271 281.262 5.93726 7408 19 265.538 80.6333 
-0.3263 302.506 7.05789 7343.96 21 362.902 155.659 
-0.3255 281.196 5.31104 7504.07 17 295.189 83.0049 
-0.3247 302.986 8.41557 7402.61 25 464.241 0 
-0.3239 333.39 5.92644 7418.08 16 230.616 169.359 
-0.3231 282.91 6.60068 7312.2 21 343.132 156.064 
-0.3223 249.884 3.88676 7437.91 14 296.209 89.1941 
-0.3215 186.899 3.73767 7424.77 18 226.223 162.961 
-0.3207 179.225 3.58419 7424.5 18 342.559 105.023 
-0.3199 285.302 6.65648 7391.22 21 389.322 132.246 
-0.3191 255.783 5.39941 7417.05 19 245.938 102.032 
-0.3183 267.102 5.3416 7295.9 18 322.085 0 
-0.3175 295.987 7.23464 7345.78 22 395.626 76.5158 
-0.3167 228.232 4.05712 7442.97 16 351.276 85.1125 
-0.3159 246.404 5.74895 7415.38 21 272.801 115.375 
-0.3151 212.807 3.31006 7418.96 14 363.933 88.5933 
-0.3143 181.725 4.038 7400.14 20 315.977 119.96 
-0.3135 207.09 4.37153 7336.58 19 247.259 321.406 
-0.3127 326.291 8.33786 7431.14 23 327.319 170.48 
-0.3119 232.156 3.86895 7339.67 15 444.181 200.39 
-0.3111 193.865 4.52314 7310.15 21 302.081 98.8171 
-0.3103 198.504 6.61624 7501.76 30 389.588 156.721 
-0.3095 289.625 5.79201 7295.06 18 282.713 164.227 
-0.3087 311.235 6.22417 7396.88 18 316.302 186.825 
-0.3079 270.738 8.42226 7379.79 28 340.823 192.95 
-0.3071 180.952 3.01562 7390.68 15 319.671 0 
-0.3063 139.566 1.24049 7425.09 8 197.259 0 
-0.3055 348.293 7.7392 7422.4 20 367.352 0 
-0.3047 215.18 5.49858 7423.31 23 400.567 95.9469 
-0.3039 355.753 9.09072 7400.32 23 210.529 190.928 
-0.3031 214.292 4.0474 7385.15 17 363.388 107.51 
-0.3023 319.73 4.97317 7488.6 14 194.473 88.5933 
-0.3015 276.117 3.68126 7304.03 12 614.222 93.536 
-0.3007 313.141 8.00184 7446.54 23 332.656 150.982 
-0.2999 326.315 6.88829 7440.06 19 438.669 80.3645 
-0.2991 290.427 6.13072 7377.87 19 350.322 0 
-0.2983 229.489 4.07947 7304.88 16 194.369 85.1125 
-0.2975 288.812 7.70102 7298.28 24 410.547 74.9398 
-0.2967 264.968 7.35962 7423.99 25 334.655 166.337 
-0.2959 255.02 6.51663 7464.55 23 383.472 170.48 
-0.2951 253.811 5.0758 7392.04 18 271.856 0 
-0.2943 221.805 4.18929 7439.28 17 211.191 108.49 
-0.2935 278.015 5.25095 7296.46 17 311.636 83.0049 
-0.2927 278.896 5.8873 7362.35 19 421.658 160.729 
-0.2919 303.511 6.40692 7402.52 19 428.488 80.3645 
-0.2911 175.359 3.50689 7460.11 18 341.197 186.825 
-0.2903 216.502 2.64592 7308.63 11 195.336 0 
-0.2895 262.122 5.53322 7366.65 19 360.083 182.117 
-0.2887 194.892 4.11405 7423.35 19 346.436 103.523 
-0.2879 294.619 5.56457 7593.99 17 335.312 83.3767 
-0.2871 254.589 5.93992 7395.76 21 248.736 77.8293 
-0.2863 272.823 6.36533 7380.78 21 300.056 77.6162 
-0.2855 287.333 6.06542 7395.6 19 397.651 0 
-0.2847 305.769 6.45459 7439.74 19 422.549 80.8879 
-0.2839 207.1 3.22128 7495.54 14 286.519 178.388 
-0.2831 263.176 6.43265 7393.05 22 260.245 0 
-0.2823 265.723 4.72356 7350.93 16 219.955 154.009 
-0.2815 279.257 7.75649 7458.57 25 416.34 93.366 
-0.2807 292.981 4.88261 7425.85 15 302.196 112.106 
-0.2799 218.39 5.82324 7360.98 24 304.567 93.536 
-0.2791 292.372 7.79594 7365.51 24 341.98 0 
-0.2783 272.172 4.23344 7390.03 14 465.757 203.968 
-0.2775 221.88 4.19072 7416.66 17 170.858 83.3767 
-0.2767 175.359 2.9224 7407.69 15 185.556 88.0338 
-0.2759 308.852 7.54908 7327.05 22 472.502 209.702 
-0.2751 315.465 7.71071 7366.1 22 313.307 97.0757 
-0.2743 274.413 4.87805 7360.88 16 312.047 85.1125 
-0.2735 276.121 6.74906 7464.26 22 333.887 76.7031 
-0.2727 369.251 10.6664 7450.24 26 344.681 179.256 
-0.2719 173.152 3.46275 7406.55 18 282.652 82.1134 
-0.2711 326.226 11.5982 7417.13 32 289.035 222.194 
-0.2703 241.824 5.37342 7481.62 20 217.634 158.091 
-0.2695 233.957 5.71846 7407.39 22 447.085 76.5158 
-0.2687 276.384 5.83429 7467.19 19 306.696 103.523 
-0.2679 207.665 4.6144 7434.03 20 341.329 179.752 
-0.2671 300.836 7.6874 7321.57 23 267.256 96.436 
-0.2663 353.422 6.28254 7432.33 16 362.023 85.5383 
-0.2655 238.923 6.90164 7450.9 26 400.483 91.267 
-0.2647 288.989 7.38466 7441.25 23 263.637 75.8112 
-0.2639 304.669 7.44683 7471.33 22 298.145 76.5158 
-0.2631 270.845 6.62011 7410.03 22 353.782 0 
-0.2623 301.479 4.68929 7544.95 14 362.642 89.1941 
-0.2615 280.165 4.9803 7357.22 16 267.885 0 
-0.2607 376.596 7.9497 7413.55 19 222.573 80.0856 
-0.2599 255.878 5.6857 7341.71 20 286.238 219.997 
-0.2591 214.156 4.28277 7407.48 18 346.355 186.825 
-0.2583 259.041 7.48279 7424.31 26 391.648 0 
-0.2575 287.899 8.95611 7409.77 28 334.116 142.84 
-0.2567 329.788 8.06081 7350 22 337.556 97.0757 
-0.2559 273.767 5.77904 7389.75 19 279.31 161.267 
-0.2551 243.013 6.7498 7455.05 25 220.125 0 
-0.2543 211.602 4.46678 7368.26 19 334.488 183.131 
-0.2535 199.555 3.32563 7477.43 15 203.085 0 
-0.2527 231.556 3.08716 7438.48 12 205.628 93.536 
-0.2519 280.358 4.67224 7472.41 15 351.75 86.531 
-0.2511 351.846 6.64543 7436.51 17 376.033 83.3767 
-0.2503 301.582 7.70644 7372.19 23 261.729 0 
-0.4993 347.53 8.49447 7426.02 22 295.44 76.7031 
-0.4985 263.505 6.14793 7401.71 21 268.342 156.064 
-0.4977 290.822 5.49284 7416.56 17 262.981 166.01 
-0.4969 304.532 5.75178 7460.74 17 206.799 83.0049 
-0.4961 379.517 7.16806 7389.54 17 332.123 83.0049 
-0.4953 308.462 6.85413 7396.29 20 308.943 179.752 
-0.4945 290.591 7.10275 7356.64 22 326.942 76.8802 
-0.4937 292.84 7.15771 7358.46 22 165.954 76.8802 
-0.4929 353.255 9.81182 7394.76 25 313.912 147.531 
-0.4921 208.214 3.93261 7445.46 17 379.475 0 
-0.4913 325.355 8.67541 7415.61 24 394.129 74.6794 
-0.4905 197.653 4.17232 7421.33 19 268.967 161.267 
-0.4897 271.158 5.72397 7436.54 19 370.036 80.0856 
-0.4889 194.713 3.89394 7354.02 18 343.845 164.821 
-0.4881 291.259 6.14828 7421.07 19 311.813 161.776 
-0.4873 273.133 5.4622 7311.51 18 298.603 0 
-0.4865 212.961 3.31245 7316.33 14 341.065 89.1941 
-0.4857 200.23 3.55934 7400.43 16 313.208 196.935 
-0.4849 315.507 9.1139 7465.4 26 169.487 165.096 
-0.4841 266.171 5.32298 7429.87 18 327.711 81.4807 
-0.4833 215.608 2.39544 7270.5 10 533.402 100.052 
-0.4825 249.23 4.98418 7354.73 18 419.532 81.8019 
-0.4817 224.858 4.99642 7368.07 20 331.513 79.2785 
-0.4809 300.23 6.00409 7506.81 18 194.119 187.995 
-0.4801 287.045 7.33498 7433.54 23 324.067 95.4641 
-0.4793 325.166 10.1154 7382.36 28 248.947 0 
-0.4785 239.374 2.12759 7353.44 8 284.283 218.38 
-0.4777 209.087 4.41369 7431.13 19 294.786 102.032 
-0.4769 367.92 9.4016 7378.77 23 158.592 151.622 
-0.4761 377.1 10.0552 7320.2 24 349.289 74.5338 
-0.4753 290.939 5.17183 7379.69 16 190.716 85.1125 
-0.4745 319.138 6.7368 7300.54 19 321.475 80.8879 
-0.4737 175.635 2.73188 7341.83 14 245.438 116.824 
-0.4729 255.6 5.11157 7355.45 18 284.483 81.4807 
-0.4721 245.918 3.00541 7444.25 11 373.385 289.584 
-0.4713 401.475 9.81302 7396.1 22 276.75 211.093 
-0.4705 242.481 6.19621 7412.8 23 420.043 75.6561 
-0.4697 277.113 7.69693 7419.52 25 374.27 0 
-0.4689 255.554 4.82672 7281.72 17 320.089 84.0885 
-0.4681 227.285 4.79783 7432.21 19 413.256 160.171 
-0.4673 237.491 3.95785 7337.74 15 319.267 87.039 
-0.4665 235.482 4.70925 7473.27 18 336.52 82.4105 
-0.4657 222.662 6.67932 7453.62 27 315.122 90.0436 
-0.4649 263.113 4.67718 7433.4 16 404.016 169.304 
-0.4641 225.385 4.75773 7324.34 19 155.597 0 
-0.4633 302.038 5.70468 7496.95 17 395.623 83.0049 
-0.4625 256.241 6.26314 7340.2 22 298.308 0 
-0.4617 394.841 8.33484 7326.97 19 226.227 182.117 
-0.4609 284.641 7.5898 7340.44 24 292.433 149.359 
-0.4601 298.711 9.29247 7379.52 28 323.129 0 
-0.4593 267.083 5.63795 7426.15 19 306.359 80.0856 
-0.4585 292.357 5.84665 7421.9 18 267.674 164.227 
-0.4577 341.831 5.31693 7396.31 14 357.463 178.388 
-0.4569 256.382 6.83629 7355.97 24 288.959 183.724 
-0.4561 221.732 3.94157 7399.21 16 390.274 222.793 
-0.4553 290.947 8.08119 7474.33 25 269.629 73.7654 
-0.4545 240.083 8.26884 7444.54 31 320.697 185.041 
-0.4537 319.929 9.24161 7465.24 26 354.624 92.7127 
-0.4529 211.438 3.9935 7409.06 17 221.947 0 
-0.4521 306.24 7.82548 7399.56 23 302.946 95.9469 
-0.4513 349.271 5.43265 7330.36 14 202.16 0 
-0.4505 205.193 4.55946 7411.58 20 302.245 179.752 
-0.4497 220.81 4.41582 7361.5 18 330.73 81.4807 
-0.4489 283.699 6.3039 7349.38 20 436.764 100.052 
-0.4481 187.648 3.75265 7298.18 18 319.285 0 
-0.4473 283.455 6.29849 7437.03 20 457.352 178.855 
-0.4465 304.543 7.78211 7414.11 23 388.32 0 
-0.4457 228.759 4.5748 7427.25 18 386.289 206.432 
-0.4449 366.354 8.95458 7429.93 22 226.433 115.841 
-0.4441 360.722 10.8207 7413.5 27 308.518 89.7164 
-0.4433 330.712 7.34855 7393.79 20 261.472 79.0455 
-0.4425 200.807 2.90031 7409.15 13 234.023 93.0719 
-0.4417 267.804 7.73591 7413.89 26 304.213 73.0127 
-0.4409 240.957 5.88957 7408.75 22 263.411 0 
-0.4401 285.585 5.39394 7449.64 17 228.276 0 
-0.4393 310.486 7.58903 7358.14 22 359.36 76.8802 
-0.4385 211.542 3.99545 7412.93 17 312.875 83.3767 
-0.4377 261.038 6.96044 7475.05 24 276.399 168.646 
-0.4369 313.405 4.87478 7453.17 14 333.084 0 
-0.4361 190.192 3.80353 7400.46 18 296.853 164.768 
-0.4353 268.857 5.97409 7418.79 20 385.722 79.0455 
-0.4345 196.102 3.70383 7328.82 17 312.263 83.0049 
-0.4337 198.496 3.30799 7430.5 15 278.091 0 
-0.4329 261.201 7.54519 7338.31 26 268.195 212.403 
-0.4321 275.98 8.27871 7383.19 27 356.1 72.1927 
-0.4313 287.022 6.69663 7390.9 21 262.687 78.0321 
-0.4305 250.764 8.07949 7346.9 29 324.475 141.505 
-0.4297 312.771 10.0773 7426.64 29 345.016 158.427 
-0.4289 269.542 5.39038 7403.68 18 126.23 185.674 
-0.4281 255.177 5.10311 7364.52 18 338.776 244.39 
-0.4273 264.164 4.69585 7406.63 16 302.634 84.6795 
-0.4265 309.393 7.21856 7354.96 21 392.323 78.2215 
-0.4257 239.628 5.32462 7402.28 20 386.14 100.707 
-0.4249 223.889 5.72112 7452.45 23 225.28 171.12 
-0.4241 204.503 5.68017 7332.91 25 256.095 73.6366 
-0.4233 298.123 8.28051 7391.66 25 338.268 92.9674 
-0.4225 241.168 8.03828 7390.54 30 302.066 201.857 
-0.4217 221.015 6.6299 7357.85 27 408.247 71.9989 
-0.4209 279.936 5.90926 7408.5 19 335.161 80.0856 
-0.4201 273.019 6.67323 7433 22 360.943 328.203 
-0.4193 183.599 4.48761 7390.4 22 307.47 173.065 
-0.4185 258.564 5.45812 7450.4 19 326.765 102.766 
-0.4177 244.79 6.25521 7384.36 23 333.089 96.9302 
-0.4169 275.695 7.35125 7258.07 24 339.52 168.646 
-0.4161 226.998 3.78299 7342.35 15 322.458 86.531 
-0.4153 232.014 5.41321 7494.34 21 321.711 155.232 
-0.4145 217.897 5.32593 7396.92 22 223.383 76.5158 
-0.4137 356.652 7.13244 7354.27 18 374.544 244.927 
-0.4129 281.732 4.69514 7348.08 15 224.012 88.5032 
-0.4121 298.484 7.62728 7398.68 23 286.373 152.163 
-0.4113 296.547 4.94204 7368.68 15 426.242 175.085 
-0.4105 298.638 8.29482 7328.16 25 252.611 73.885 
-0.4097 229.776 3.82929 7358.39 15 250.738 174.078 
-0.4089 299.899 7.99665 7444.93 24 331.748 184.583 
-0.4081 269.25 6.58112 7360.98 22 451.13 189.669 
-0.4073 188.125 5.43427 7486.86 26 285.852 72.9075 
-0.4065 290.381 3.54881 7389.33 11 330.047 193.098 
-0.4057 321.158 9.63395 7361.06 27 344.486 177.499 
-0.4049 215.695 5.99104 7371.56 25 352.701 73.9933 
-0.4041 163.116 2.1747 7400.02 12 482.581 0 
-0.4033 209.587 4.19139 7451.91 18 599.657 106.768 
-0.4025 446.657 8.93239 7373.89 18 536.867 105.023 
-0.4017 286.682 8.91825 7441.44 28 325.477 104.284 
-0.4009 318.837 7.4389 7380.41 21 350.977 77.6162 
-0.4001 238.672 4.77304 7374.18 18 247.176 0 
-0.3993 239.283 3.19017 7343.67 12 367.604 93.536 
-0.3985 330.649 11.0207 7415.95 30 270.243 112.106 
-0.3977 231.767 3.86246 7500.12 15 288.5 86.531 
-0.3969 218.258 4.1223 7388.23 17 295.722 0 
-0.3961 261.42 6.38972 7370.94 22 278.226 0 
-0.3953 214.335 5.23885 7395.45 22 236.374 76.7031 
-0.3945 280.762 4.9909 7366.46 16 291.478 169.359 
-0.3937 316.729 6.33405 7465.04 18 221.957 0 
-0.3929 313.684 5.22763 7347.6 15 466.61 87.5423 
-0.3921 250.994 5.57718 7381.47 20 350.355 197.895 
-0.3913 204.531 3.86304 7350.64 17 430.347 0 
-0.3905 302.172 9.73584 7391.61 29 274.354 141.077 
-0.3897 177.176 2.559 7382.21 13 190.574 0 
-0.3889 332.957 7.39843 7455.88 20 276.23 0 
-0.3881 247.38 3.02328 7406.47 11 236.169 96.5489 
-0.3873 330.941 5.14754 7353.34 14 301.95 89.7945 
-0.3865 313.044 9.04273 7327.33 26 414.865 146.025 
-0.3857 292.658 7.80358 7436.68 24 333.121 0 
-0.3849 264.465 3.81973 7401.92 13 504.486 0 
-0.3841 256.472 7.69353 7282.93 27 329.067 144.2 
-0.3833 201.192 4.91762 7352.67 22 366.685 96.5489 
-0.3825 169.599 5.08753 7349.08 27 229.254 104.744 
-0.3817 222.341 2.71727 7446.74 11 419.867 0 
-0.3809 224.245 4.48453 7403.57 18 305.173 0 
-0.3801 251.578 8.66475 7413.56 31 256.518 173.024 
-0.3793 344.536 7.27294 7441.4 19 262.645 103.523 
-0.3785 377.922 10.0771 7381.26 24 344.969 149.359 
-0.3777 286.593 7.64185 7394.29 24 233.955 0 
-0.3769 284.919 6.9641 7488.85 22 327.81 97.0757 
-0.3761 301.36 9.37486 7336.06 28 333.182 303.924 
-0.3753 198.487 4.41045 7427.02 20 326.899 79.2785 
-0.3745 289.173 5.14043 7426.4 16 250.076 0 
-0.3737 301.237 6.02423 7364.53 18 263.265 208.152 
-0.3729 274.556 6.10074 7382.16 20 264.206 179.752 
-0.3721 268.03 6.25352 7429.92 21 238.033 117.326 
-0.3713 354.816 9.06677 7453.95 23 350.223 95.4641 
-0.3705 211.297 2.81706 7347.22 12 339.171 0 
-0.3697 285.46 7.61164 7314.22 24 308.483 75.0497 
-0.3689 274.365 5.79167 7476.38 19 291.132 81.1229 
-0.3681 175.315 3.89555 7467.52 20 292.771 157.604 
-0.3673 288.078 6.72127 7445.19 21 238.286 116.331 
-0.3665 381.956 10.1847 7407.49 24 411.846 187.934 
-0.3657 296.333 7.57233 7435.12 23 288.527 75.6561 
-0.3649 370.487 8.64397 7408.08 21 327.5 0 
-0.3641 324.729 5.41171 7414.57 15 292.962 0 
-0.3633 304.979 5.08256 7478.94 15 347.463 87.039 
-0.3625 288.617 8.33712 7401.83 26 207.332 0 
-0.3617 298.905 9.29848 7470.4 28 335.367 0 
-0.3609 239.688 6.12484 7304.87 23 288.544 170.48 
-0.3601 257.026 7.42458 7397.26 26 310.939 252.94 
-0.3593 287.203 4.46724 7339.66 14 204.421 0 
-0.3585 314.5 6.28948 7459.15 18 427.267 163.604 
-0.3577 371.871 10.742 7340.22 26 289.481 163.703 
-0.3569 269.158 8.3731 7489.08 28 332.46 161.692 
-0.3561 272.975 5.15576 7373.78 17 243.441 0 
-0.3553 334.636 6.32037 7432.52 17 239.274 83.3767 
-0.3545 213.207 3.31628 7406.93 14 287.359 177.187 
-0.3537 271.025 6.92561 7414.79 23 287.705 171.12 
-0.3529 192.209 4.91161 7382.04 23 361.449 112.692 
-0.3521 319.063 6.38074 7414.08 18 171.264 82.4105 
-0.3513 245.703 6.82451 7408.19 25 285.608 181.83 
-0.3505 259.563 3.17217 7401.87 11 202.293 0 
-0.3497 305.294 9.15806 7415.55 27 323.953 193.91 
-0.3489 252.122 3.92157 7576.98 14 249.699 89.1941 
-0.3481 259.872 6.3519 7418.31 22 334.92 0 
-0.3473 211.435 4.46326 7391.38 19 328.579 0 
-0.3465 282.254 5.33103 7384.4 17 320.02 83.0049 
-0.3457 293.116 3.58223 7332.73 11 420.77 0 
-0.3449 223.15 4.21471 7433.19 17 302.126 83.3767 
-0.3441 236.082 3.40979 7353.24 13 236.26 0 
-0.3433 222.139 3.70201 7369.41 15 308.835 0 
-0.3425 337.308 9.74365 7310.12 26 399.961 72.7933 
-0.3417 222.808 5.44596 7338.87 22 483.691 230.06 
-0.3409 205.655 5.2552 7347.33 23 356.626 171.12 
-0.3401 287.752 9.27123 7435.52 29 219.264 70.6898 
-0.3393 279.579 7.1442 7356.11 23 297.433 75.4912 
-0.3385 270.342 6.30745 7348.17 21 270.479 210.075 
-0.3377 227.071 6.30699 7350.18 25 186.137 0 
-0.3369 314.863 5.94692 7384.3 17 296.738 0 
-0.3361 287.022 5.42108 7367.85 17 350.119 106.568 
-0.3353 201.556 4.03079 7400.62 18 380.533 244.39 
-0.3345 266.792 6.52103 7483.86 22 527.75 0 
-0.3337 237.223 4.21695 7465.74 16 291.345 342.098 
-0.3329 206.782 4.59477 7406.42 20 259.178 133.899 
-0.3321 253.341 5.34787 7381.29 19 242.481 219.17 
-0.3313 151.93 3.20713 7423.78 19 199.194 0 
-0.3305 288.215 6.08402 7342.07 19 313.019 80.3645 
-0.3297 317.491 3.88012 7590.74 11 193.332 98.7099 
-0.3289 309.351 6.8739 7362.07 20 234.521 178.855 
-0.3281 340.124 7.93557 7411.61 21 289.862 155.232 
-0.3273 314.833 4.897 7349.81 14 365.5 89.7945 
-0.3265 276.561 4.3017 7477.64 14 379.537 118.36 
-0.3257 279.603 8.07673 7383.46 26 328.458 164.64 
-0.3249 256.809 6.84767 7375.51 24 394.043 74.6794 
-0.3241 245.882 4.37088 7473.78 16 578.279 172.682 
-0.3233 295.428 5.57985 7390.43 17 346.812 168.177 
-0.3225 311.661 6.23271 7440.83 18 235.965 187.995 
-0.3217 324.749 8.65925 7365.19 24 287.371 149.359 
-0.3209 296.167 5.92285 7412.55 18 391.02 81.8019 
-0.3201 260.273 7.51837 7350.97 26 339.256 165.096 
-0.3193 232.896 5.4338 7430.95 21 275.82 78.2215 
-0.3185 202.563 5.62627 7377 25 225.592 73.7654 
-0.3177 335.141 6.70226 7346.68 18 327.221 105.023 
-0.3169 247.941 6.06027 7324.13 22 460.757 153.032 
-0.3161 323.065 10.7679 7450.73 30 291.584 0 
-0.3153 209.122 4.41444 7425.43 19 328.003 0 
-0.3145 246.548 5.20447 7502.3 19 249.511 80.3645 
-0.3137 239.008 5.5764 7413.28 21 316.587 78.0321 
-0.3129 297.912 8.93661 7398.64 27 240.228 90.0436 
-0.3121 260.325 6.94142 7303.28 24 305.279 168.07 
-0.3113 203.432 3.39024 7531.09 15 226.669 0 
-0.3105 290.997 9.6991 7413.14 30 322.138 69.9355 
-0.3097 249.997 4.99953 7370.71 18 391.828 81.8019 
-0.3089 250.635 8.35379 7377.72 30 311.232 139.997 
-0.3081 263.697 4.39459 7463.62 15 337.082 173.006 
-0.3073 225.477 4.25866 7444.83 17 291.194 0 
-0.3065 214.999 3.82189 7441.23 16 303.866 0 
-0.3057 394.75 10.5258 7340.8 24 321.075 168.646 
-0.3049 185.073 3.49553 7428.59 17 414.721 192.23 
-0.3041 264.415 5.87541 7313.94 20 461.778 78.8022 
-0.3033 274.764 5.80008 7328.49 19 359.261 80.0856 
-0.3025 256.845 5.99256 7385.37 21 227.118 175.848 
-0.3017 276.818 6.76611 7447.48 22 386.885 328.203 
-0.3009 236.435 6.5671 7383.79 25 372.339 108.064 
-0.3001 240.776 5.08262 7301.91 19 300.192 263.444 
-0.2993 277.868 6.79176 7365.6 22 247.995 0 
-0.2985 285.138 6.65267 7328.22 21 221.736 77.6162 
-0.2977 307.963 5.81659 7365.86 17 225.591 0 
-0.2969 343.421 8.39405 7388.82 22 362.243 114.017 
-0.2961 262.266 5.24488 7385.56 18 349.442 82.4105 
-0.2953 237.987 5.02376 7441.27 19 398.099 103.523 
-0.2945 200.213 4.22637 7367.79 19 323.645 80.3645 
-0.2937 339.915 9.81896 7453.96 26 265.581 0 
-0.2929 344.046 7.26258 7489.05 19 241.903 80.0856 
-0.2921 310.683 8.28419 7472.3 24 442.942 74.9398 
-0.2913 271.457 5.73027 7443.98 19 194.436 102.032 
-0.2905 268.884 5.67597 7441.15 19 145.751 226.372 
-0.2897 292.956 6.5096 7376.64 20 256.774 78.8022 
-0.2889 258.28 8.6086 7417.99 30 305.963 86.7852 
-0.2881 256.068 5.12093 7425.14 18 323.494 186.825 
-0.2873 250.871 5.29572 7392.26 19 209.153 0 
-0.2865 235.714 3.40448 7345.64 13 324.209 0 
-0.2857 256.225 7.11676 7492.2 25 358.141 147.531 
-0.2849 281.214 6.24868 7405.29 20 319.261 158.557 
-0.2841 205.11 3.64609 7356.63 16 373.614 0 
-0.2833 197.338 2.19247 7324.66 10 361.331 136.93 
-0.2825 240.641 5.61448 7397.91 21 201.068 197.634 
-0.2817 147.293 2.78197 7447.6 17 216.222 166.01 
-0.2809 333.324 7.40657 7295.11 20 354.828 0 
-0.2801 306.848 7.15919 7447.09 21 261.978 198.831 
-0.2793 288.788 5.77527 7457.14 18 317.465 210.046 
-0.2785 268.905 4.78014 7352.76 16 290.79 85.5383 
-0.2777 315.926 8.42399 7332.23 24 243.025 200.14 
-0.2769 311.135 6.56786 7426.26 19 204.275 160.677 
-0.2761 192.033 5.12046 7494.9 24 261.214 168.646 
-0.2753 270.255 8.10698 7506.56 27 408.999 104.194 