ITEM: TIMESTEP
4000
ITEM: NUMBER OF CELLS
5000
ITEM: BOX BOUNDS or pp pp
-0.5 0.5
0 0.0002
-0.5 0.5
ITEM: CELLS xc c_1[1] c_1[2] c_2[1] c_2[2] c_2[3] c_3[1] 
-0.4999 242.912 5.3976 7413.45 20 265.346 180.656 
-0.4991 343.243 6.48294 7451.86 17 279.266 0 
-0.4983 256.819 5.42127 7370.61 19 225.316 185.189 
-0.4975 231.889 5.15266 7436.33 20 334.891 157.604 
-0.4967 284.318 4.42235 7336.76 14 418.229 89.1941 
-0.4959 301.212 9.37025 7367.35 28 378.97 88.8933 
-0.4951 232.293 4.64547 7480.77 18 248.195 0 
-0.4943 238.906 6.37029 7384.86 24 272.34 74.6794 
-0.4935 347.275 6.17327 7319.16 16 321.803 0 
-0.4927 239.32 6.38133 7389.92 24 311.469 149.88 
-0.4919 262.641 7.29498 7369.06 25 243.396 186.732 
-0.4911 245.972 6.01216 7398.86 22 387.608 230.06 
-0.4903 298.044 6.62264 7410.75 20 289.469 78.8022 
-0.4895 255.713 7.10256 7390.69 25 411.909 108.064 
-0.4887 368.044 8.58697 7430.76 21 360.91 78.0321 
-0.4879 383.458 7.66852 7389.52 18 348.311 204.773 
-0.4871 230.803 4.35924 7444.69 17 302.07 108.49 
-0.4863 341.164 9.85504 7370.43 26 304.723 73.0127 
-0.4855 247.647 8.52936 7369.99 31 379.272 0 
-0.4847 312.338 6.59324 7413.41 19 351.89 0 
-0.4839 237.254 3.95391 7226.54 15 363.089 198.637 
-0.4831 305.841 9.85406 7375.45 29 363.288 174.629 
-0.4823 278.663 7.1208 7334.18 23 368.086 126.733 
-0.4815 255.426 5.39188 7464.2 19 427.464 184.156 
-0.4807 196.144 3.26879 7330.44 15 211.389 0 
-0.4799 307.373 7.51294 7430.57 22 346.756 77.0444 
-0.4791 282.382 7.21583 7400.05 23 358.492 75.8112 
-0.4783 285.468 7.61185 7387.4 24 395.729 149.359 
-0.4775 338.777 8.65692 7334.67 23 260.504 0 
-0.4767 259.659 6.05821 7425.56 21 231.043 0 
-0.4759 171.033 2.85032 7205.95 15 232.167 87.039 
-0.4751 278.151 8.34383 7376.7 27 429.585 90.7015 
-0.4743 258.615 5.74651 7401.35 20 264.127 0 
-0.4735 226.441 6.79265 7386.85 27 246.188 144.55 
-0.4727 270.412 7.81124 7412.66 26 186.333 72.9075 
-0.4719 311.221 7.26121 7339.98 21 374.131 0 
-0.4711 241.745 5.37167 7543.22 20 309.305 0 
-0.4703 210.827 4.21619 7386.35 18 371.98 81.4807 
-0.4695 336.3 8.96725 7329.83 24 375.368 94.4034 
-0.4687 317.09 7.04586 7442.28 20 403.651 0 
-0.4679 319.97 4.6214 7418.04 13 214.044 183.254 
-0.4671 293.845 5.87641 7311.88 18 281.57 82.1134 
-0.4663 237.154 4.74268 7404.4 18 373.016 0 
-0.4655 315.917 5.26484 7375.79 15 372.834 87.039 
-0.4647 243.578 6.22426 7404.6 23 270.837 186.589 
-0.4639 225.341 4.50644 7447.82 18 326.609 0 
-0.4631 274.986 4.2772 7478.9 14 349.529 143.105 
-0.4623 258.423 6.89072 7361.83 24 381.294 0 
-0.4615 285.81 6.3508 7353.68 20 220.562 178.855 
-0.4607 341.079 8.3368 7329.19 22 232.121 77.1923 
-0.4599 286.584 8.91522 7395 28 428.609 0 
-0.4591 269.778 5.69483 7400.5 19 285.019 0 
-0.4583 280.502 4.05136 7374.98 13 371.639 209.98 
-0.4575 334.392 7.43031 7531.03 20 242.035 78.8022 
-0.4567 419.412 5.5917 7401.09 12 380.522 0 
-0.4559 310.811 6.56101 7324.5 19 331.378 0 
-0.4551 298.48 9.28528 7391.37 28 405.357 142.984 
-0.4543 409.603 10.9218 7419.19 24 440.372 0 
-0.4535 203.42 4.06805 7290.31 18 336.961 104.194 
-0.4527 301.681 9.04969 7328.11 27 255.821 162.144 
-0.4519 208.518 5.09668 7384.36 22 410.812 97.612 
-0.4511 262.333 4.66331 7496.66 16 388.648 387.684 
-0.4503 364.227 7.6886 7482.93 19 350.178 161.267 
-0.4495 227.072 7.31617 7416.92 29 353.76 243.012 
-0.4487 299.06 5.64845 7383.1 17 353.198 83.0049 
-0.4479 253.008 4.49754 7358.33 16 232.211 85.5383 
-0.4471 183.574 3.87513 7448.57 19 451.505 80.3645 
-0.4463 246.203 6.56487 7455.46 24 299.587 93.967 
-0.4455 296.456 6.258 7440.28 19 325.071 80.3645 
-0.4447 361.743 8.43997 7390.64 21 321.287 77.8293 
-0.4439 308.145 7.5318 7375.4 22 260.95 347.508 
-0.4431 336.269 7.47203 7333.43 20 260.971 78.8022 
-0.4423 360.76 8.41703 7442.97 21 329.875 78.0321 
-0.4415 236.608 6.57191 7387.25 25 300.906 73.7654 
-0.4407 262.192 6.11731 7432.76 21 320.62 0 
-0.4399 250.745 5.29306 7441.09 19 324.821 80.3645 
-0.4391 231.099 4.36484 7421.56 17 333.833 192.23 
-0.4383 260.94 8.11744 7415.64 28 286.437 103.238 
-0.4375 235.478 6.27889 7452.28 24 293.829 169.219 
-0.4367 285.859 6.03431 7356.8 19 338.757 80.0856 
-0.4359 253.945 6.77129 7319.66 24 314.259 149.359 
-0.4351 330.828 8.08623 7408.68 22 348.377 0 
-0.4343 296.679 6.59231 7312.55 20 215.034 158.091 
-0.4335 287.668 6.39208 7427.1 20 384.011 79.2785 
-0.4327 210.351 3.50555 7461.37 15 404.109 113.351 
-0.4319 257.164 8.85713 7370.49 31 349.765 86.0498 
-0.4311 268.106 5.65954 7409.82 19 332.64 80.0856 
-0.4303 286.427 7.63742 7389.98 24 244.341 168.646 
-0.4295 205.035 7.74513 7439.49 34 382.261 179.015 
-0.4287 287.206 5.42456 7386.26 17 175.7 107.51 
-0.4279 291.392 6.1511 7356.36 19 278.743 204.064 
-0.4271 280.807 7.48757 7321.75 24 301.098 149.359 
-0.4263 254.377 5.08712 7345.23 18 275.527 81.4807 
-0.4255 274.818 6.10655 7479.37 20 305.233 237.784 
-0.4247 282.583 5.33724 7359.26 17 296.427 107.51 
-0.4239 210.695 5.61806 7396.32 24 473.402 109.19 
-0.4231 204.632 4.547 7405.12 20 334.468 79.0455 
-0.4223 233.033 4.91918 7407.93 19 353.918 80.6333 
-0.4215 391.642 6.52683 7381.73 15 448.28 87.039 
-0.4207 289.156 7.06766 7371.68 22 251.388 76.5158 
-0.4199 343.869 8.02294 7407.3 21 301.232 175.848 
-0.4191 247.548 4.95055 7343.55 18 225.776 104.194 
-0.4183 336.325 10.4626 7372.76 28 310.971 159.842 
-0.4175 244.709 5.43752 7515.58 20 272.206 179.752 
-0.4167 220.462 4.65382 7432.89 19 362.067 201.968 
-0.4159 298.218 6.6265 7458.93 20 329.542 178.855 
-0.4151 268.344 5.66458 7338.62 19 365.428 160.729 
-0.4143 358.138 4.77477 7462.15 12 406.763 94.4034 
-0.4135 151.72 2.69702 7362.69 16 341.996 85.1125 
-0.4127 282.194 6.58398 7418.42 21 249.629 77.8293 
-0.4119 304.854 8.12876 7410.03 24 307.032 93.967 
-0.4111 221.705 8.12852 7403.31 33 222.293 68.126 
-0.4103 215.69 4.31344 7401.58 18 238.613 0 
-0.4095 294.056 7.18745 7352.37 22 414.187 0 
-0.4087 308.627 7.20069 7314.08 21 404.305 192.991 
-0.4079 244.766 7.07043 7294.41 26 394.754 165.54 
-0.4071 253.563 4.78913 7504.83 17 268.962 83.7397 
-0.4063 280.107 6.22408 7467.58 20 311.437 217.838 
-0.4055 310.742 6.55957 7392.16 19 369.567 183.131 
-0.4047 268.039 7.14711 7443.78 24 338.573 185.454 
-0.4039 334.706 7.06542 7427.49 19 379.805 183.131 
-0.4031 256.174 6.54611 7469.2 23 265.577 187.538 
-0.4023 297.036 8.91033 7345.75 27 324.18 90.3722 
-0.4015 242.522 5.38894 7473.79 20 387.251 181.562 
-0.4007 427.598 11.4017 7524.97 24 271.022 187.072 
-0.3999 269.732 6.59289 7379.77 22 256.898 0 
-0.3991 215.711 6.71044 7357.22 28 318.642 0 
-0.3983 284.613 6.64042 7460.13 21 378.816 0 
-0.3975 163.245 2.90189 7408.41 16 332.78 85.5383 
-0.3967 287.486 7.66564 7399.24 24 446.842 149.631 
-0.3959 234.931 3.13215 7551.66 12 329.101 283.149 
-0.3951 212.22 4.71561 7378.92 20 269.12 178.855 
-0.3943 280.481 7.47886 7413.8 24 314.687 149.068 
-0.3935 234.849 5.74026 7451.33 22 335.332 113.153 
-0.3927 309.497 10.6596 7442.65 31 238.949 168.513 
-0.3919 314.441 6.63766 7404.06 19 360.995 80.0856 
-0.3911 329.697 8.7912 7378 24 314.856 74.8155 
-0.3903 295.258 7.87289 7349.35 24 345.922 149.631 
-0.3895 227.488 4.80212 7392.18 19 239.113 80.6333 
-0.3887 367.229 7.34396 7433.41 18 289.877 0 
-0.3879 379.53 9.6983 7374.57 23 300.841 75.4912 
-0.3871 273.774 6.08336 7362.35 20 353.556 199.238 
-0.3863 398.772 11.5191 7480.69 26 277.065 73.1891 
-0.3855 274.487 5.48928 7330.06 18 302.593 162.961 
-0.3847 295.75 5.9145 7398.13 18 343.373 0 
-0.3839 191.564 3.61813 7378.02 17 352.955 83.0049 
-0.3831 324.668 6.49281 7549.84 18 206.991 82.4105 
-0.3823 290.387 7.09776 7471.64 22 325.683 173.779 
-0.3815 297.524 7.60276 7416.18 23 232.142 94.9884 
-0.3807 233.511 5.1887 7394.13 20 339.695 179.752 
-0.3799 230.177 4.60316 7415.54 18 341.198 0 
-0.3791 268.074 5.95669 7409.1 20 224.649 79.0455 
-0.3783 270.973 8.1285 7409.42 27 341.027 0 
-0.3775 303.356 8.42585 7357.1 25 351.632 181.049 
-0.3767 262.549 5.83394 7380.6 20 359.024 100.052 
-0.3759 317.205 5.28631 7376.63 15 298.277 135.885 
-0.3751 234.465 2.60495 7325.09 10 291.18 0 
-0.3743 242.224 5.65141 7379.37 21 304.904 77.8293 
-0.3735 245.986 4.37272 7451.77 16 277.666 85.5383 
-0.3727 238.805 6.10228 7382.4 23 381.391 201.131 
-0.3719 321.808 7.86575 7343.9 22 497.051 153.406 
-0.3711 266.314 5.91759 7456.96 20 226.018 0 
-0.3703 293.988 5.22602 7464.02 16 349.16 0 
-0.3695 199.569 5.76484 7519.71 26 390.094 73.0127 
-0.3687 298.289 3.64545 7526.29 11 634.755 197.42 
-0.3679 216.582 6.49692 7445.61 27 437.902 72.1927 
-0.3671 336.594 5.98339 7407.48 16 319.832 85.5383 
-0.3663 247.049 4.39161 7453.13 16 279.376 170.17 
-0.3655 331.615 9.21077 7401.72 25 333.33 92.9674 
-0.3647 190.421 3.80811 7375.81 18 273.186 0 
-0.3639 249.307 6.37064 7402.98 23 349.223 75.6561 
-0.3631 339.649 8.67921 7416.68 23 176.223 150.982 
-0.3623 299.514 6.32255 7272.68 19 399.364 0 
-0.3615 208.907 3.2494 7416.23 14 300.265 0 
-0.3607 259.419 7.20548 7380.33 25 248.812 295.492 
-0.3599 295.327 4.92171 7468.14 15 284.313 87.039 
-0.3591 323.987 8.27897 7429.91 23 355.45 97.4279 
-0.3583 254.647 6.22418 7452.59 22 356.499 96.5489 
-0.3575 179.889 2.99791 7397.99 15 288.513 156.711 
-0.3567 329.45 8.78461 7414.52 24 297.755 0 
-0.3559 194.984 4.54924 7371.02 21 395.056 78.0321 
-0.3551 175.17 2.53002 7424.4 13 402.234 0 
-0.3543 320.764 7.12749 7440.66 20 310.568 101.378 
-0.3535 293.131 7.16482 7368.54 22 376.755 0 
-0.3527 289.664 6.11462 7371.13 19 251.54 160.171 
-0.3519 307.025 5.79889 7448.28 17 263.278 83.0049 
-0.3511 353.315 6.67317 7352.01 17 373.596 0 
-0.3503 263.532 6.14856 7405.53 21 269.163 155.659 
-0.3495 280.262 6.5389 7322.21 21 260.322 77.8293 
-0.3487 212.362 4.24689 7368.84 18 376.888 105.023 
-0.3479 305.649 8.14997 7445.12 24 292.669 94.4034 
-0.3471 326.091 7.60816 7465.57 21 146.592 77.6162 
-0.3463 307.883 8.89365 7396.15 26 309.984 90.9094 
-0.3455 302.594 8.4047 7347.72 25 368.345 0 
-0.3447 313.307 8.00607 7499.41 23 299.258 150.982 
-0.3439 246.124 5.46897 7501.84 20 373.058 0 
-0.3431 341.88 6.83704 7435.84 18 322.649 0 
-0.3423 303.382 8.42656 7404.2 25 288.885 166.337 
-0.3415 215.654 5.9899 7417.49 25 450.803 222.217 
-0.3407 249.906 3.60945 7403.94 13 322.323 90.9094 
-0.3399 389.031 9.07663 7393.09 21 329.323 155.659 
-0.3391 259.498 4.90121 7407.18 17 283.265 83.3767 
-0.3383 245.553 4.91065 7341.44 18 323.26 82.1134 
-0.3375 252.81 7.3028 7345.11 26 360.996 106.349 
-0.3367 233.123 5.69808 7426.77 22 388.512 0 
-0.3359 303.945 6.75378 7405 20 190.719 0 
-0.3351 225.583 5.01254 7356.76 20 414.365 78.8022 
-0.3343 256.993 4.56838 7418.68 16 439.001 0 
-0.3335 263.568 7.61356 7467.05 26 312.136 180.697 
-0.3327 184.597 3.69162 7528.18 18 319.061 0 
-0.3319 245.334 5.17884 7388.3 19 405.88 102.766 
-0.3311 278.688 4.95403 7522.89 16 205.461 169.359 
-0.3303 202.432 4.94793 7373.44 22 298.19 0 
-0.3295 232.438 5.4231 7335.22 21 319.239 98.8171 
-0.3287 180.261 4.20575 7381.09 21 376.816 176.646 
-0.3279 282.785 10.0538 7436.1 32 386.374 169.793 
-0.3271 269.002 6.87391 7437.29 23 311.983 75.4912 
-0.3263 206.97 4.13906 7490.33 18 327.429 186.825 
-0.3255 265.032 7.06693 7373.67 24 362.395 168.07 
-0.3247 252.681 3.93027 7391.92 14 265.445 89.1941 
-0.3239 300.812 7.01836 7450.49 21 301.759 156.064 
-0.3231 297.913 9.9296 7374.1 30 203.306 0 
-0.3223 269.747 5.99388 7351.34 20 365.152 78.8022 
-0.3215 195.783 2.17519 7338.44 10 395.208 0 
-0.3207 239.468 7.18343 7483.03 27 272.218 162.144 
-0.3199 205.944 3.2033 7469.44 14 338.006 177.187 
-0.3191 260.921 4.92809 7310.24 17 185.237 83.0049 
-0.3183 280.658 3.42998 7398.62 11 306.328 193.098 
-0.3175 270.169 7.2039 7460.73 24 301.825 168.646 
-0.3167 239.352 5.85033 7378.34 22 459.351 0 
-0.3159 228.325 3.8051 7427.14 15 224.578 202.203 
-0.3151 246.456 5.47634 7327.9 20 299.318 79.2785 
-0.3143 220.283 6.60794 7436.34 27 355.967 143.998 
-0.3135 267.019 5.6366 7453.14 19 455.422 0 
-0.3127 252.485 4.76876 7322.75 17 333.47 106.568 
-0.3119 252.289 5.60595 7375.84 20 299.156 79.0455 
-0.3111 257.86 6.8757 7395.38 24 353.494 74.5338 
-0.3103 250.531 8.07198 7472.68 29 364.642 141.236 
-0.3095 213.388 4.97864 7398.46 21 268.411 98.8171 
-0.3087 230.252 5.3721 7396.05 21 277.811 98.2313 
-0.3079 266.63 7.40578 7412.47 25 279.571 73.9933 
-0.3071 261.22 5.51419 7322.91 19 273.016 160.171 
-0.3063 278.972 5.26904 7402.72 17 432.03 83.3767 
-0.3055 187.548 5.41759 7423.48 26 297.726 72.9075 
-0.3047 276.328 5.83311 7405.38 19 250.435 239.189 
-0.3039 294.719 5.56646 7378 17 217.921 107.51 
-0.3031 261.895 7.27425 7370.81 25 368.303 73.6366 
-0.3023 306.965 8.18504 7453.39 24 409.263 149.359 
-0.3015 317.626 7.76355 7319.23 22 426.23 173.065 
-0.3007 378.374 7.98724 7400.07 19 244.457 243.206 
-0.2999 168.395 1.68381 7393.24 9 528.156 0 
-0.2991 273.554 5.77455 7405.35 19 325.849 80.3645 
-0.2983 232.737 5.17149 7383.93 20 475.384 79.2785 
-0.2975 291.159 4.85225 7354 15 272.966 87.5423 
-0.2967 327.936 5.46514 7376.14 15 205.437 87.5423 
-0.2959 237.997 4.75955 7307.19 18 396.134 0 
-0.2951 211.665 4.70328 7364.46 20 282.703 202.755 
-0.2943 270.383 6.90921 7497.68 23 350.538 75.4912 
-0.2935 203.095 4.06156 7344.69 18 315.507 0 
-0.2927 320.461 6.76471 7385.76 19 476.535 81.1229 
-0.2919 265.305 4.71614 7333.61 16 377.535 219.08 
-0.2911 271.329 8.1392 7394.74 27 307.584 176.844 
-0.2903 360.656 8.01392 7369.66 20 384.736 79.2785 
-0.2895 226.382 5.2818 7448.92 21 280.354 117.326 
-0.2887 270.861 9.32888 7345.18 31 391.702 338.837 
-0.2879 264.905 7.35785 7306.16 25 517.389 73.6366 
-0.2871 333.637 5.18948 7386.79 14 405.01 0 
-0.2863 315.745 6.66518 7389.71 19 344.569 80.3645 
-0.2855 283.299 5.6655 7388.29 18 318.984 105.023 
-0.2847 277.336 7.0869 7475.77 23 349.641 95.4641 
-0.2839 262.917 6.13423 7405.6 21 325.015 0 
-0.2831 211.488 5.16929 7428.7 22 308.926 76.8802 
-0.2823 287.195 8.9342 7330.83 28 332.795 219.327 
-0.2815 261.084 4.93117 7438.23 17 272.356 0 
-0.2807 246.241 5.47156 7395.93 20 293.228 158.091 
-0.2799 284.308 6.00155 7372.82 19 255.081 205.533 
-0.2791 197.208 5.25845 7407.65 24 350.67 149.88 
-0.2783 244.428 5.15973 7534.26 19 260.639 182.117 
-0.2775 206.839 5.28546 7491.71 23 231.332 75.9539 
-0.2767 296.902 4.28823 7394.67 13 253.668 0 
-0.2759 223.218 5.45598 7377.62 22 335.142 153.406 
-0.2751 254.957 5.9485 7425.76 21 304.607 78.3935 
-0.2743 290.49 6.77753 7299.99 21 373.256 100.026 
-0.2735 240.156 8.53818 7370.75 32 359.752 68.7601 
-0.2727 225.585 3.75943 7389.91 15 260.213 116.039 
-0.2719 278.29 6.80209 7419.66 22 287.909 76.7031 
-0.2711 273.424 6.37936 7304.92 21 320.025 77.6162 
-0.2703 215.323 2.87073 7382.32 12 525.463 93.536 
-0.2695 296.763 9.89126 7398.1 30 348.847 69.9355 
-0.2687 204.044 4.08054 7451.41 18 330.461 82.4105 
-0.2679 345.689 9.98574 7382.58 26 346.085 164.64 
-0.2671 229.312 4.33108 7342.01 17 373.665 107.51 
-0.2663 228.939 1.78049 7374.04 7 514.755 0 
-0.2655 305.508 7.12793 7408.5 21 288.383 332.255 
-0.2647 285.411 7.29322 7391.21 23 337.991 75.9539 
-0.2639 280.546 6.54554 7353.48 21 215.477 98.2313 
-0.2631 214.759 4.77202 7495.79 20 356.534 79.0455 
-0.2623 287.158 7.01884 7452.73 22 366.968 76.5158 
-0.2615 208.272 4.85928 7333.18 21 315.15 0 
-0.2607 251.7 5.31322 7505.73 19 236.361 0 
-0.2599 272.104 4.837 7480.41 16 250.129 0 
-0.2591 252.475 6.45161 7325.11 23 330.003 95.9469 
-0.2583 222.579 4.9458 7473.59 20 296.923 0 
-0.2575 237.923 2.9077 7495.24 11 321.299 0 
-0.2567 182.293 3.64556 7413.56 18 342.255 186.825 
-0.2559 320.725 9.62095 7377.07 27 257.642 0 
-0.2551 212.61 3.54321 7355.36 15 248.927 0 
-0.2543 240.774 5.61759 7316.41 21 365.089 155.659 
-0.2535 289.481 6.11075 7495.9 19 266.31 0 
-0.2527 324.884 6.13618 7257.54 17 246.782 83.7397 
-0.2519 371.233 6.18669 7419.42 15 357.908 348.1 
-0.2511 241.67 5.6385 7399.51 21 372.733 178.247 
-0.2503 265.083 7.65732 7413.99 26 377.222 179.974 
-0.4993 293.742 7.17976 7400.14 22 293.539 173.779 
-0.4985 314.038 8.37365 7403.88 24 270.607 168.07 
-0.4977 166.412 3.69775 7450.42 20 356.246 79.2785 
-0.4969 265.651 6.7883 7371.82 23 410.032 0 
-0.4961 288.431 6.40905 7422.35 20 311.888 0 
-0.4953 373.509 7.46956 7332.82 18 261.572 105.881 
-0.4945 280.468 4.67407 7362.53 15 190.061 0 
-0.4937 229.517 5.60994 7342.18 22 379.356 0 
-0.4929 368.887 8.60665 7513.23 21 285.122 176.646 
-0.4921 310.46 6.89853 7460.39 20 248.026 157.604 
-0.4913 177.95 1.97705 7440.28 10 408.05 100.052 
-0.4905 288.537 8.97595 7390.32 28 298.013 102.731 
-0.4897 415.918 5.54511 7357.23 12 331.219 216.828 
-0.4889 300.825 7.01867 7335.52 21 262.844 77.8293 
-0.4881 253.168 5.90677 7360.38 21 204.727 215.148 
-0.4873 273.529 3.95065 7440.7 13 271.358 90.9094 
-0.4865 383.627 3.83595 7234.74 9 246.291 105.881 
-0.4857 294.802 6.22308 7337.87 19 277.494 80.6333 
-0.4849 232.005 4.63972 7374.01 18 311.497 123.292 
-0.4841 276.049 4.90713 7436.22 16 250.014 0 
-0.4833 325.341 7.95213 7376.41 22 379.695 76.8802 
-0.4825 249.221 4.70712 7475.03 17 196.747 129.58 
-0.4817 209.804 4.66192 7323.86 20 211.733 178.855 
-0.4809 259.185 6.91102 7449.61 24 303.386 74.5338 
-0.4801 276.381 7.36955 7354.89 24 388.017 149.88 
-0.4793 344.144 8.02936 7390.27 21 258.85 176.646 
-0.4785 341.741 7.59361 7417.74 20 320.906 0 
-0.4777 218.787 5.34769 7426.89 22 411.19 76.5158 
-0.4769 262.492 5.2494 7411.86 18 340.15 186.825 
-0.4761 326.721 6.53387 7398.96 18 346.109 105.023 
-0.4753 241.538 4.02529 7477.32 15 312.063 86.531 
-0.4745 264.619 6.17392 7366.93 21 386.011 0 
-0.4737 290.634 6.45799 7367.06 20 236.816 100.707 
-0.4729 255.311 5.67311 7269.07 20 282.604 0 
-0.4721 302.918 7.40405 7376.09 22 254.339 209.702 
-0.4713 325.416 4.70006 7477.15 13 220.308 279.156 
-0.4705 220.644 4.41251 7340.51 18 207.353 0 
-0.4697 316.442 8.43775 7319.28 24 321.535 74.6794 
-0.4689 232.43 7.48879 7447.29 29 245.723 158.072 
-0.4681 351.46 8.20004 7409.08 21 279.392 98.2313 
-0.4673 319.557 8.52081 7342.33 24 321.395 94.4034 
-0.4665 198.102 5.06218 7455.09 23 201.219 0 
-0.4657 222.841 4.20886 7432.6 17 314.696 83.3767 
-0.4649 367.921 6.94904 7425.35 17 247.563 107.51 
-0.4641 225.77 5.26753 7437.05 21 343.286 177.448 
-0.4633 245.67 5.45887 7432.29 20 438.648 119.96 
-0.4625 289.198 5.46217 7367.65 17 407.58 0 
-0.4617 282.358 7.21521 7395.81 23 243.121 0 
-0.4609 381.549 4.66299 7378.26 11 299.756 0 
-0.4601 271.634 6.94118 7410.29 23 286.793 75.6561 
-0.4593 319.591 5.68114 7430.53 16 284.337 195.381 
-0.4585 260.27 6.93996 7440.91 24 405.058 74.5338 
-0.4577 238.749 4.77459 7410.17 18 355.432 82.1134 
-0.4569 243.601 7.30742 7432.52 27 382.756 90.0436 
-0.4561 278.799 8.98278 7449.87 29 292.434 0 
-0.4553 205.898 4.80389 7385.9 21 251.999 0 
-0.4545 230.007 5.87746 7472.97 23 291.229 209.964 
-0.4537 204.105 5.21558 7390.92 23 300.915 338.801 
-0.4529 315.062 5.95068 7291.75 17 391.942 166.01 
-0.4521 313.289 7.65754 7391.88 22 296.654 76.8802 
-0.4513 254.668 5.65881 7393.33 20 277.017 79.0455 
-0.4505 230.26 4.60482 7383.09 18 323.653 81.8019 
-0.4497 245.559 5.4564 7336.93 20 306.331 0 
-0.4489 322.487 10.0321 7355.82 28 293.81 188.244 
-0.4481 250.979 4.74032 7462.02 17 430.23 84.0885 
-0.4473 330.084 6.60113 7377.4 18 473.806 81.8019 
-0.4465 374.275 5.82157 7383.88 14 325.628 89.1941 
-0.4457 283.82 5.3606 7453.01 17 356.724 83.7397 
-0.4449 383.186 8.08881 7300.12 19 254.989 0 
-0.4441 338.833 5.27029 7468.03 14 206.774 0 
-0.4433 303.323 5.39195 7295.15 16 305.866 131.704 
-0.4425 212.825 5.20196 7349.99 22 387.414 209.702 
-0.4417 337.726 9.00528 7402.66 24 336.195 0 
-0.4409 218.175 4.84792 7454.08 20 292.071 158.091 
-0.4401 321.846 6.0788 7359.75 17 286.91 209.468 
-0.4393 196.906 5.25038 7335.52 24 275.544 206.24 
-0.4385 245.657 4.6398 7388.5 17 295.026 0 
-0.4377 301.21 7.02765 7271.97 21 475.971 0 
-0.4369 253.647 4.5089 7347.46 16 203.702 169.304 
-0.4361 194.421 1.29603 7502.21 6 165.453 173.062 
-0.4353 278.098 4.63457 7427.51 15 252.42 0 
-0.4345 228.712 6.35257 7322.24 25 345.376 73.885 
-0.4337 248.051 4.96062 7406.22 18 442.787 163.604 
-0.4329 275.801 8.57977 7477.6 28 216.785 285.921 
-0.4321 297.609 3.96779 7350.44 12 232.426 93.536 
-0.4313 222.735 5.44418 7450.12 22 281.755 76.7031 
-0.4305 260.045 4.04481 7431.79 14 192.872 265.723 
-0.4297 259.003 5.75515 7353.33 20 340.034 158.091 
-0.4289 236.462 4.99156 7385.74 19 392.502 102.766 
-0.4281 256.196 7.96988 7405.68 28 387.059 334.762 
-0.4273 312.032 7.28015 7304.91 21 189.145 155.659 
-0.4265 272.865 8.79158 7351.29 29 295.752 159.113 
-0.4257 270 5.39954 7443.08 18 448.781 245.353 
-0.4249 237.245 4.74451 7392.48 18 360.835 108.625 
-0.4241 189.503 2.94758 7317.16 14 311.055 0 
-0.4233 276.743 4.612 7347.84 15 289.519 87.5423 
-0.4225 298.936 6.97458 7396.48 21 205.687 98.2313 
-0.4217 448.128 7.96605 7415.73 16 224.112 85.1125 
-0.4209 272.554 3.02813 7438.43 10 307.591 0 
-0.4201 228.643 3.81039 7301.88 15 284.098 0 
-0.4193 215.034 5.97267 7354.52 25 329.705 0 
-0.4185 205.922 3.88932 7321.34 17 448.26 83.0049 
-0.4177 194.515 3.88997 7346.27 18 235.503 0 
-0.4169 205.578 5.02483 7484.91 22 340.824 98.1572 
-0.4161 258.708 4.8863 7337.5 17 181.593 0 
-0.4153 238.063 5.28984 7372.58 20 247.172 100.707 
-0.4145 292.479 6.49899 7428.04 20 238.735 0 
-0.4137 368.048 8.99597 7352.22 22 256.341 76.7031 
-0.4129 307.605 8.20211 7379.69 24 243.215 168.07 
-0.4121 304.008 5.7419 7488.18 17 219.52 0 
-0.4113 231.989 6.44359 7415.86 25 266.538 92.5717 
-0.4105 206.378 6.6494 7496.48 29 558.139 70.618 
-0.4097 279.271 3.41302 7318.89 11 262.256 228.245 
-0.4089 263.556 4.39224 7377.64 15 412.737 112.106 
-0.4081 270.254 6.30539 7373.16 21 368.214 192.991 
-0.4073 316.114 5.97055 7476.39 17 260.089 83.0049 
-0.4065 343.532 6.4884 7341.98 17 313.172 0 
-0.4057 312.845 6.60396 7334.26 19 377.925 0 
-0.4049 271.324 4.82313 7406.16 16 225.327 193.869 
-0.4041 240.504 5.07689 7344.37 19 320.419 186.223 
-0.4033 284.261 4.73729 7506.28 15 302.273 0 
-0.4025 256.485 6.26911 7275.29 22 374.056 76.5158 
-0.4017 289.37 7.71589 7391.47 24 395.198 74.6794 
-0.4009 284.562 7.58768 7351.48 24 269.776 149.88 
-0.4001 289.358 6.75113 7342.63 21 337.129 77.6162 
-0.3993 258.384 5.7414 7408.11 20 316.203 100.707 
-0.3985 341.884 7.21695 7329.33 19 297.381 0 
-0.3977 287.356 5.74665 7377.57 18 279.74 81.8019 
-0.3969 262.627 7.29458 7408.41 25 342.421 73.9933 
-0.3961 217.484 2.89955 7473.84 12 431.792 0 
-0.3953 315.509 5.25804 7400.63 15 367.088 0 
-0.3945 276.709 4.91885 7477.49 16 217.656 85.1125 
-0.3937 382.08 7.64096 7294.98 18 394.907 82.1134 
-0.3929 325.806 5.42965 7333.62 15 399.395 0 
-0.3921 217.644 4.59432 7452.52 19 277.257 80.0856 
-0.3913 258.605 6.89555 7418.35 24 325.096 168.646 
-0.3905 300.353 9.34353 7347.95 28 310.092 89.4948 
-0.3897 224.591 4.49145 7401.9 18 326.677 328.401 
-0.3889 189.789 2.10859 7479.11 10 247.428 200.105 
-0.3881 214.316 5.95272 7384.26 25 345.265 0 
-0.3873 312.347 6.24641 7339.34 18 364.138 81.4807 
-0.3865 250.155 5.83646 7433.51 21 364.991 175.848 
-0.3857 218.752 5.8329 7366.07 24 381.961 203.871 
-0.3849 254.37 6.21741 7470.28 22 213.822 96.5489 
-0.3841 321.085 9.98849 7443.3 28 227.23 89.7945 
-0.3833 269.636 8.98713 7347.62 30 244.587 86.531 
-0.3825 371.053 5.77145 7344.97 14 227.262 267.525 
-0.3817 151.777 2.69802 7424.36 16 280.837 109.19 
-0.3809 319.167 4.6098 7310.95 13 272.436 91.6271 
-0.3801 256.356 5.12669 7374.61 18 265.54 185.674 
-0.3793 230.55 3.58603 7466.34 14 233.172 267.525 
-0.3785 169.465 2.44762 7448.36 13 211.52 237.652 
-0.3777 257.884 6.58981 7378 23 430.733 150.982 
-0.3769 220.285 5.62904 7424.95 23 333.399 151.312 
-0.3761 239.597 5.32394 7433.86 20 251.488 158.557 
-0.3753 251.54 6.14823 7301.76 22 255.848 195.224 
-0.3745 301.961 5.36775 7401.58 16 463.504 0 
-0.3737 257.998 6.01945 7368.34 21 341.548 155.232 
-0.3729 322.036 11.4492 7418.57 32 399.66 137.583 
-0.3721 336.025 8.5866 7333.08 23 334.277 220.628 
-0.3713 262.393 4.95591 7376.73 17 335.742 190.887 
-0.3705 318.432 6.72189 7504.59 19 291.195 102.032 
-0.3697 283.439 7.55775 7393.73 24 336.713 187.072 
-0.3689 292.573 9.10151 7403.67 28 390.211 88.8933 
-0.3681 285.258 6.02161 7383.57 19 226.931 0 
-0.3673 315.23 8.05521 7428.1 23 264.984 111.882 
-0.3665 288.019 5.75991 7259.87 18 311.638 187.995 
-0.3657 224.223 4.48408 7389.36 18 370.59 104.194 
-0.3649 279.83 6.83972 7439.55 22 311.211 0 
-0.3641 269.626 5.39207 7436.23 18 298.743 163.604 
-0.3633 228.382 5.32848 7460.57 21 357.964 0 
-0.3625 227.954 5.31849 7434.39 21 354.636 0 
-0.3617 307.267 10.2414 7361.57 30 322.542 156.396 
-0.3609 246.469 7.11961 7381.28 26 322.61 146.025 
-0.3601 234.084 3.90108 7423.93 15 243.047 174.078 
-0.3593 208.995 3.01857 7297.98 13 360.309 0 
-0.3585 342.516 9.133 7374.24 24 306.2 94.844 
-0.3577 214.249 3.57052 7388.13 15 315.826 0 
-0.3569 212.705 4.72638 7347.46 20 385.511 158.04 
-0.3561 351.865 7.03671 7287.85 18 175.85 81.8019 
-0.3553 223.005 3.96421 7517.97 16 274.279 85.1125 
-0.3545 297.039 6.60033 7286.26 20 267.126 79.4976 
-0.3537 205.02 4.55561 7357.91 20 352.079 102.767 
-0.3529 258.81 5.17576 7361 18 301.569 186.825 
-0.3521 296.605 6.59067 7365.89 20 366.742 78.8022 
-0.3513 361.305 5.61983 7434.36 14 425.499 284.5 
-0.3505 379.472 9.6968 7442.63 23 239.506 75.6561 
-0.3497 237.977 7.4031 7377.23 28 352.354 160.614 
-0.3489 259.827 5.77346 7414.77 20 229.404 0 
-0.3481 151.966 2.36371 7436.86 14 347.505 0 
-0.3473 301.815 5.02982 7450.74 15 226.976 0 
-0.3465 340.856 8.71004 7395.24 23 250.161 151.622 
-0.3457 298.356 7.62401 7465.2 23 216.481 0 
-0.3449 219.156 5.60017 7377.93 23 341.777 75.4912 
-0.3441 280.709 7.48494 7350.33 24 276.166 74.9398 
-0.3433 300.681 8.35156 7328.17 25 259.756 240.055 
-0.3425 252.053 6.16077 7427.21 22 301.565 76.7031 
-0.3417 243.646 4.60181 7413.08 17 322.033 83.3767 
-0.3409 257.156 4.85699 7400.35 17 351.356 192.23 
-0.3401 203.916 4.07798 7295.25 18 420.195 163.604 
-0.3393 218.473 3.15546 7439.27 13 285.336 183.254 
-0.3385 317.447 7.75918 7423.38 22 316.511 97.612 
-0.3377 519.568 9.236 7410.09 16 309.254 0 
-0.3369 338.23 6.76404 7434.42 18 308.095 81.8019 
-0.3361 320.535 8.19076 7411.74 23 285.737 0 
-0.3353 214.046 2.85371 7371.3 12 160.893 0 
-0.3345 184.102 3.47719 7466.71 17 415.244 0 
-0.3337 284.339 7.89764 7484.37 25 324.413 147.987 
-0.3329 338.371 7.14279 7370.94 19 388.264 0 
-0.3321 259.981 4.04381 7406.64 14 217.942 159.51 
-0.3313 269.626 7.18943 7405.1 24 290.905 169.219 
-0.3305 324.189 8.64431 7394.42 24 368.011 149.068 
-0.3297 273.248 7.286 7403.4 24 283.138 168.646 
-0.3289 248.122 5.51335 7441.88 20 215.866 78.8022 
-0.3281 256.118 5.12193 7379.4 18 325.711 222.214 
-0.3273 271.435 4.82512 7366.47 16 370.829 0 
-0.3265 299.355 4.65625 7429.87 14 489.158 89.7945 
-0.3257 263.939 8.79724 7406.65 30 230.432 279.697 
-0.3249 247.515 6.04987 7397.94 22 381.29 253.858 
-0.3241 267.981 7.44329 7380.79 25 426.86 181.049 
-0.3233 257.212 4.85804 7379.16 17 244.127 83.3767 
-0.3225 226.982 5.04363 7368.77 20 355.596 100.052 
-0.3217 197.227 5.47807 7377.26 25 443.334 93.7663 
-0.3209 374.854 9.5788 7425.64 23 399.631 95.4641 
-0.3201 369.894 5.75342 7354.45 14 321.996 88.5933 
-0.3193 303.088 5.72451 7431.51 17 286.7 83.3767 
-0.3185 332.019 7.00871 7498.56 19 268.042 104.301 
-0.3177 229.194 5.34741 7330.43 21 274.224 155.232 
-0.3169 260.398 6.07546 7399.61 21 307.457 155.659 
-0.3161 299.95 7.99801 7410.51 24 285.699 168.646 
-0.3153 223.801 4.227 7384.5 17 326.995 108.49 
-0.3145 252.738 4.49274 7328.06 16 411.314 85.1125 
-0.3137 253.967 5.64325 7416.86 20 259.486 0 
-0.3129 277.387 7.70456 7315.3 25 265.68 199.592 
-0.3121 285.254 5.70461 7448.5 18 403.273 105.023 
-0.3113 244.723 8.15675 7438.3 30 281.039 188.669 
-0.3105 220.499 3.4297 7400.04 14 354.478 178.388 
-0.3097 262.868 5.84102 7400.57 20 326.829 180.656 
-0.3089 233.186 2.59074 7344.06 10 400.414 0 
-0.3081 235.108 4.96299 7373.73 19 296.698 80.3645 
-0.3073 280.794 7.17525 7500.44 23 347.811 0 
-0.3065 264.448 7.05136 7391.33 24 404.692 93.967 
-0.3057 310.828 5.52537 7387.88 16 361.862 0 
-0.3049 229.191 5.85661 7382.73 23 481.845 0 
-0.3041 161.199 3.76099 7361.96 21 330.945 312.078 
-0.3033 268.805 8.66077 7382.25 29 357.63 70.7524 
-0.3025 260.342 5.49564 7349.97 19 324.462 160.729 
-0.3017 232.321 6.96906 7352.61 27 283.259 0 
-0.3009 286.506 5.72964 7298.97 18 337.805 163.604 
-0.3001 303.018 5.38654 7366.51 16 263.189 109.19 
-0.2993 231.595 3.34499 7373.67 13 322.216 314.148 
-0.2985 316.9 5.6333 7411.3 16 447.552 85.1125 
-0.2977 332.148 6.27338 7418.18 17 287.616 83.0049 
-0.2969 290.975 6.46556 7435.55 20 238.607 0 
-0.2961 363.692 8.08136 7378.11 20 358.877 79.2785 
-0.2953 243.341 5.94783 7486.97 22 392.195 0 
-0.2945 221.405 4.67371 7446.17 19 383.809 80.3645 
-0.2937 287.358 7.02373 7362.19 22 309.913 0 
-0.2929 255.606 5.96364 7396.2 21 286.781 117.326 
-0.2921 264.287 5.28529 7359.7 18 335.465 81.8019 
-0.2913 335.187 5.95838 7443.83 16 379.414 193.869 
-0.2905 186.712 2.69673 7364.78 13 383.065 0 
-0.2897 317.91 8.1237 7337.74 23 336.847 0 
-0.2889 209.527 3.49183 7407.6 15 300.307 87.039 
-0.2881 362.407 5.23433 7384.07 13 473.495 91.6271 
-0.2873 213.753 3.56225 7332.76 15 206.864 133.899 
-0.2865 292.241 8.44182 7417.74 26 275.753 0 
-0.2857 269.974 4.79913 7427.33 16 232.72 85.1125 
-0.2849 327.659 6.91667 7392.48 19 339.996 0 
-0.2841 341.453 8.72528 7322.97 23 221.761 97.4279 
-0.2833 262.696 6.71279 7545.84 23 294.908 171.758 
-0.2825 301.989 7.38133 7399.35 22 419.656 97.0757 
-0.2817 178.933 3.37957 7388.83 17 314.157 83.7397 
-0.2809 214.669 5.00852 7369.5 21 312.533 0 
-0.2801 278.589 4.95227 7395.83 16 446.249 0 
-0.2793 213.927 5.70424 7402.71 24 318.202 93.967 
-0.2785 231.732 3.34697 7374.89 13 295.688 0 
-0.2777 254.197 4.8011 7387.26 17 291.611 0 
-0.2769 185.035 4.11154 7481.87 20 219.57 258.747 
-0.2761 331.967 9.95817 7399.27 27 387.925 143.951 
-0.2753 273.879 4.56427 7417.13 15 355.987 0 
-0.2745 197.3 3.94566 7443.23 18 291.461 124.63 
-0.2737 227.048 4.28832 7481.26 17 418.697 189.573 