ITEM: TIMESTEP
14000
ITEM: NUMBER OF CELLS
5000
ITEM: BOX BOUNDS or pp pp
-0.5 0.5
0 0.0002
-0.5 0.5
ITEM: CELLS xc c_1[1] c_1[2] c_2[1] c_2[2] c_2[3] c_3[1] 
-0.4999 287.332 7.0231 7395.85 22 242.41 153.406 
-0.4991 236.819 4.73598 7336.75 18 215.509 82.1134 
-0.4983 338.925 7.53104 7387.05 20 256.35 179.752 
-0.4975 287.316 5.10741 7327.5 16 283.598 169.359 
-0.4967 246.334 6.02099 7442.89 22 238.232 76.7031 
-0.4959 223.721 3.97694 7447.4 16 242.571 129.977 
-0.4951 348.806 6.58801 7504.1 17 383.238 83.3767 
-0.4943 220.91 4.66328 7398.56 19 416.161 80.6333 
-0.4935 307.851 5.47244 7427.07 16 324.576 169.359 
-0.4927 241.367 6.43591 7392.92 24 458.891 317.957 
-0.4919 208.014 2.77329 7306.93 12 248.341 222.811 
-0.4911 261.589 5.52198 7353.25 19 365.505 80.3645 
-0.4903 328.54 8.76035 7424.11 24 280.159 0 
-0.4895 213.593 5.45804 7375.41 23 362.016 75.6561 
-0.4887 287.553 5.75057 7487.34 18 316.277 81.8019 
-0.4879 353.793 7.46835 7361.92 19 347.589 122.85 
-0.4871 212.165 3.30008 7392.97 14 221.048 177.187 
-0.4863 195.72 3.47917 7493.06 16 327.371 84.6795 
-0.4855 234.25 4.1641 7369 16 265.635 171.077 
-0.4847 291.75 7.77936 7412.04 24 307.85 223.553 
-0.4839 277.799 5.86416 7379.92 19 417.651 80.3645 
-0.4831 316.635 7.73932 7422.48 22 375.275 76.5158 
-0.4823 263.971 5.86553 7396.05 20 269.891 0 
-0.4815 307.75 6.15449 7396.59 18 309.728 124.63 
-0.4807 315.036 7.35023 7442.68 21 326.977 116.331 
-0.4799 295.665 5.91281 7377.12 18 284.613 81.8019 
-0.4791 381.734 10.6028 7361.34 25 303.135 0 
-0.4783 260.509 5.20975 7400.48 18 243.973 163.604 
-0.4775 194.994 4.11619 7359.54 19 408.699 0 
-0.4767 209.21 4.18385 7427.12 18 358.669 185.674 
-0.4759 266.087 6.5038 7429.4 22 237.094 97.0757 
-0.4751 284.422 6.31997 7376.56 20 384.626 201.413 
-0.4743 274.111 7.309 7315.73 24 373.988 169.219 
-0.4735 317.277 9.51751 7452.03 27 303.711 162.144 
-0.4727 322.041 7.51366 7445.3 21 363.274 77.6162 
-0.4719 241.182 4.28732 7350.79 16 226.651 170.225 
-0.4711 292.205 9.73936 7410.93 30 295.55 140.26 
-0.4703 352.264 8.61018 7449.72 22 372.588 77.0444 
-0.4695 243.65 3.5191 7429.84 13 255.169 91.6271 
-0.4687 200.414 2.89462 7485.27 13 285.12 143.32 
-0.4679 226.228 6.78627 7361.98 27 373.629 194.787 
-0.4671 193.895 4.52384 7380.33 21 193.905 223.138 
-0.4663 271.608 5.73346 7386.94 19 224.683 80.0856 
-0.4655 247.699 4.40318 7429.76 16 524.298 85.5383 
-0.4647 226.061 7.28358 7326.37 29 303.577 158.427 
-0.4639 283.556 6.30072 7331.23 20 257.827 79.2785 
-0.4631 257.783 5.44163 7424.39 19 357.472 102.032 
-0.4623 308.576 9.94218 7423.88 29 346.157 176.17 
-0.4615 254.342 3.39095 7434.98 12 382.73 93.536 
-0.4607 155.534 2.93763 7432.92 17 414.626 0 
-0.4599 257.63 5.15217 7447.29 18 313.816 371.296 
-0.4591 259.947 4.90971 7334.34 17 406.151 190.887 
-0.4583 293.847 5.87645 7380.96 18 392.02 81.8019 
-0.4575 223.189 2.72764 7382.61 11 335.8 96.5489 
-0.4567 312.494 6.24936 7427 18 160.247 81.8019 
-0.4559 215.577 4.31118 7464.14 18 317.049 0 
-0.4551 253.283 5.34664 7359.18 19 345.197 160.171 
-0.4543 287.562 7.02871 7365.82 22 378.075 0 
-0.4535 270.706 5.1129 7414.11 17 279.38 83.3767 
-0.4527 276.539 6.45203 7426.25 21 386.185 77.6162 
-0.4519 312.671 7.64244 7487.91 22 318.153 0 
-0.4511 270.272 5.10472 7438.89 17 167.984 167.479 
-0.4503 259.245 6.62459 7397.77 23 247.299 112.692 
-0.4495 272.293 6.05045 7361.49 20 311.398 0 
-0.4487 324.173 7.92357 7379.17 22 434.926 191.793 
-0.4479 275.319 8.25888 7403.67 27 387.745 107.07 
-0.4471 362.788 8.06128 7383.85 20 214.281 0 
-0.4463 368.746 9.8324 7343.04 24 295.118 0 
-0.4455 310.439 6.20827 7341.37 18 357.434 82.4105 
-0.4447 311.766 6.92755 7284.34 20 213.791 217.838 
-0.4439 286.726 9.23818 7347.37 29 360.111 141.077 
-0.4431 225.901 4.51765 7403.75 18 278.75 185.674 
-0.4423 320.598 4.98666 7381.13 14 341.119 89.1941 
-0.4415 363.723 7.67795 7385.9 19 447.694 0 
-0.4407 204.816 3.64088 7402.2 16 241.88 0 
-0.4399 206.253 3.20811 7443.01 14 203.233 89.1941 
-0.4391 256.854 5.99275 7465.71 21 365.696 77.8293 
-0.4383 283.789 5.36001 7366.64 17 385.845 0 
-0.4375 266.029 5.6157 7412.6 19 200.757 102.032 
-0.4367 410.454 13.2246 7383.91 29 327.25 202.163 
-0.4359 188.091 3.55253 7448.18 17 286.568 83.3767 
-0.4351 348.726 7.74883 7467.23 20 242.939 79.2785 
-0.4343 231.982 7.21663 7371.96 28 220.08 142.984 
-0.4335 239.221 4.25246 7409.82 16 333.559 170.225 
-0.4327 266.518 6.81045 7352.79 23 460.982 0 
-0.4319 280.409 6.23078 7431.23 20 426.927 0 
-0.4311 315.605 8.06479 7309.21 23 335.751 95.4641 
-0.4303 285.842 9.20969 7396.81 29 306.5 158.775 
-0.4295 194.416 4.53599 7426.02 21 284.754 98.2313 
-0.4287 235.385 3.39972 7476.65 13 265.704 0 
-0.4279 309.174 6.18297 7392.68 18 177.493 0 
-0.4271 249.044 7.74738 7347.37 28 304.289 142.984 
-0.4263 340.648 9.08319 7464.55 24 316.915 93.536 
-0.4255 342.293 11.4088 7421.47 30 288.499 156.721 
-0.4247 352.515 7.44136 7433.03 19 318.865 161.267 
-0.4239 278.881 8.67558 7411.14 28 269.826 0 
-0.4231 216.621 6.25741 7420.37 26 385.676 180.697 
-0.4223 234.327 4.16546 7378.53 16 211.333 109.19 
-0.4215 251.547 5.58946 7454.83 20 338.032 180.656 
-0.4207 166.36 2.95726 7377.8 16 271.784 85.5383 
-0.4199 260.451 5.49796 7406.12 19 300.832 0 
-0.4191 279.192 5.27318 7459.98 17 428.19 211.354 
-0.4183 239.34 6.11596 7453.24 23 306.246 0 
-0.4175 244.995 4.89949 7403.14 18 244.996 0 
-0.4167 272.452 5.44859 7397.92 18 495.871 82.4105 
-0.4159 304.912 5.42021 7376.74 16 269.62 0 
-0.4151 214.549 5.48247 7402.18 23 315.207 170.48 
-0.4143 268.488 4.47442 7406.28 15 261.872 0 
-0.4135 291.398 6.79871 7474.45 21 261.699 78.0321 
-0.4127 259.811 6.06174 7422.94 21 272.116 155.232 
-0.4119 266.885 7.11633 7449.88 24 348.643 189.688 
-0.4111 330.134 6.23534 7355.53 17 222.876 233.03 
-0.4103 247.045 7.13626 7381.3 26 343.449 91.267 
-0.4095 259.146 5.4704 7381.12 19 360.929 0 
-0.4087 404.169 8.08271 7429.86 18 277.441 0 
-0.4079 269.92 4.79817 7359.6 16 314.569 0 
-0.4071 259.936 4.33191 7496.88 15 182.725 0 
-0.4063 232.781 6.20699 7355.15 24 275.792 149.631 
-0.4055 216.119 5.28248 7466.54 22 251.626 0 
-0.4047 309.803 6.88394 7441.58 20 201.983 79.0455 
-0.4039 276.589 5.83861 7387.24 19 385.527 160.729 
-0.4031 316.285 6.32518 7307.07 18 357.166 104.194 
-0.4023 280.163 7.47038 7347.18 24 344.392 74.9398 
-0.4015 271.033 4.21572 7335.35 14 349.568 0 
-0.4007 250.86 5.5742 7420.32 20 360.1 79.2785 
-0.3999 261.2 5.80396 7428.73 20 258.247 0 
-0.3991 216.454 3.84775 7364.05 16 241.073 169.359 
-0.3983 232.464 9.03949 7407.97 35 256.068 177.679 
-0.3975 315.391 9.81135 7411.64 28 299.566 71.3383 
-0.3967 306.608 8.17553 7434.29 24 316.124 74.9398 
-0.3959 261.578 4.94051 7428.96 17 327.656 108.49 
-0.3951 315.854 6.66747 7451.55 19 313.512 0 
-0.3943 348.788 6.58766 7479.63 17 296.864 166.753 
-0.3935 259.532 6.92027 7367.21 24 380.191 0 
-0.3927 164.639 4.75584 7361.94 26 266.222 90.9094 
-0.3919 268.919 5.67671 7312.07 19 336.439 160.171 
-0.3911 251.259 8.09546 7372.32 29 264.026 70.7524 
-0.3903 234.431 4.9487 7431.42 19 255.936 102.032 
-0.3895 260.546 4.63155 7377.69 16 392.417 85.1125 
-0.3887 250.83 5.01617 7558.83 18 268.051 81.8019 
-0.3879 247.621 6.32758 7403.89 23 287.56 75.4912 
-0.3871 276.871 3.6913 7447.11 12 509.763 188.807 
-0.3863 230.72 3.84501 7440.9 15 425.998 200.39 
-0.3855 261.681 4.94244 7447.59 17 301.059 83.3767 
-0.3847 208.12 4.39328 7370.67 19 455.615 160.171 
-0.3839 235.361 4.96832 7394.5 19 356.062 0 
-0.3831 225.79 4.01371 7410.55 16 261.07 84.6795 
-0.3823 228.867 5.08551 7365.72 20 446.008 79.2785 
-0.3815 351.162 8.1931 7436.21 21 300.454 175.848 
-0.3807 300.55 6.67832 7314.04 20 257.612 201.413 
-0.3799 205.415 4.56439 7482.46 20 332.465 101.378 
-0.3791 286.079 8.58165 7404.23 27 358.182 161.715 
-0.3783 292.409 5.52282 7307.67 17 239.892 166.753 
-0.3775 275.37 6.42476 7432.22 21 315.619 155.232 
-0.3767 264.546 5.87831 7429.54 20 236.397 0 
-0.3759 265.543 4.13033 7515.87 14 289.873 115.375 
-0.3751 244.856 6.80098 7493.89 25 374.447 181.83 
-0.3743 263.632 6.1509 7389.95 21 315.336 215.148 
-0.3735 310.137 5.85765 7404.81 17 217.801 0 
-0.3727 312.816 4.86561 7374.99 14 381.416 0 
-0.3719 219.402 3.90016 7413.86 16 182.489 129.977 
-0.3711 189.283 3.15446 7447.54 15 245.734 87.039 
-0.3703 319.919 7.10871 7537.51 20 335.385 158.557 
-0.3695 270.625 6.91538 7370.86 23 253.241 0 
-0.3687 295.04 6.55591 7309.33 20 259.743 79.0455 
-0.3679 260.872 7.24585 7379.64 25 270.586 181.049 
-0.3671 217.879 6.7779 7429.53 28 287.772 160.614 
-0.3663 268.062 5.95643 7389.85 20 417.421 201.413 
-0.3655 244.21 4.61248 7341.79 17 366.223 84.4158 
-0.3647 316.429 9.14053 7377.53 26 259.386 0 
-0.3639 280.264 4.67068 7340.81 15 377.014 380.084 
-0.3631 379.455 8.43162 7495.94 20 258.269 79.4976 
-0.3623 346.164 7.30729 7345.9 19 333.903 102.032 
-0.3615 314.814 4.8967 7442.84 14 432.542 0 
-0.3607 266.737 7.11239 7481.81 24 256.752 74.6794 
-0.3599 322.191 8.59105 7321.52 24 330.066 150.099 
-0.3591 259.05 5.46838 7390.62 19 317.667 80.6333 
-0.3583 245.659 5.45863 7459.78 20 274.434 78.8022 
-0.3575 307.029 9.55122 7433.87 28 324.015 160.614 
-0.3567 269.969 5.99882 7499.59 20 346.824 79.0455 
-0.3559 250.442 3.33895 7402.68 12 356.304 94.4034 
-0.3551 214.633 3.81539 7370 16 383.305 0 
-0.3543 331.129 4.78258 7371.05 13 360.51 169.53 
-0.3535 222.458 6.67318 7321.75 27 308.193 105.306 
-0.3527 211.685 3.29261 7398.33 14 530.023 0 
-0.3519 248.215 5.23965 7459.06 19 211.102 0 
-0.3511 218.543 5.58451 7328.66 23 438.709 75.6561 
-0.3503 243.235 5.40478 7385.48 20 391.444 157.604 
-0.3495 277.767 4.32046 7360.17 14 349.674 89.1941 
-0.3487 278.861 6.19639 7465.84 20 365.839 235.571 
-0.3479 230.051 5.36741 7395.72 21 323.304 349.769 
-0.3471 243.61 4.87178 7339.14 18 302.052 208.152 
-0.3463 280.246 6.53852 7410.09 21 274.196 175.848 
-0.3455 240.839 5.61911 7461.25 21 326.956 77.6162 
-0.3447 349.485 7.3774 7383.25 19 453.566 80.3645 
-0.3439 212.411 5.89981 7357.37 25 297.287 0 
-0.3431 231.789 6.95308 7415.13 27 387.501 0 
-0.3423 257.103 7.71245 7431.91 27 248.751 191.831 
-0.3415 355.266 5.5259 7318.84 14 437.446 116.824 
-0.3407 282.694 3.45486 7363.24 11 208.945 197.42 
-0.3399 237.964 6.34518 7330.85 24 247.626 169.219 
-0.3391 453.135 11.5792 7377.67 23 300.647 75.4912 
-0.3383 268.317 3.87536 7264.52 13 270.707 90.9094 
-0.3375 240.388 4.00614 7417.86 15 355.477 200.39 
-0.3367 206.807 4.59533 7411.79 20 269.105 78.8022 
-0.3359 282.855 7.54218 7388.73 24 278.453 0 
-0.3351 270.152 7.5036 7401.61 25 379.226 0 
-0.3343 317.83 5.64983 7490.64 16 397.01 84.6795 
-0.3335 320.533 7.47849 7286.87 21 287.585 195.358 
-0.3327 366.405 8.14165 7357.92 20 343.352 158.091 
-0.3319 307.925 7.52642 7430.84 22 445.255 113.153 
-0.3311 227.814 3.03727 7419.46 12 183.973 125.325 
-0.3303 272.456 8.173 7424.83 27 412.461 210.257 
-0.3295 231.823 4.37852 7411.2 17 435.852 107.51 
-0.3287 255.443 5.10844 7404.52 18 157.294 82.4105 
-0.3279 227.85 6.32863 7359.65 25 299.769 73.885 
-0.3271 379.901 5.90908 7311.4 14 139.282 89.1941 
-0.3263 240.694 4.27865 7469.1 16 389.166 169.359 
-0.3255 301.647 8.37839 7408.25 25 227.483 0 
-0.3247 237.803 3.96306 7422.06 15 295.631 87.039 
-0.3239 316.847 8.44855 7447.59 24 331.135 186.336 
-0.3231 209.292 6.51075 7384.92 28 383.202 173.979 
-0.3223 290.506 6.7779 7391.38 21 329.268 78.0321 
-0.3215 375.508 5.84075 7281.01 14 233.338 88.5933 
-0.3207 292.324 6.82033 7338.08 21 285.757 156.064 
-0.3199 261.296 5.51579 7434.39 19 303.142 103.523 
-0.3191 303.714 5.06147 7428.04 15 386.776 87.039 
-0.3183 376.781 4.60472 7426.47 11 314.951 128.173 
-0.3175 268.782 6.56969 7329.77 22 248.418 76.7031 
-0.3167 356.531 8.71447 7445.19 22 337.904 307.471 
-0.3159 224.881 4.2474 7472.63 17 391.074 0 
-0.3151 251.511 6.14754 7406.48 22 291.583 96.5489 
-0.3143 200.939 5.13468 7419.38 23 361.471 94.9884 
-0.3135 313.071 4.17394 7434.91 12 244.69 95.2879 
-0.3127 166.746 3.89042 7475.21 21 297.327 77.8293 
-0.3119 305.171 8.47627 7410.61 25 420.787 73.7654 
-0.3111 264.063 5.28083 7330.24 18 409.364 82.1134 
-0.3103 446.522 9.4258 7390.84 19 420.482 0 
-0.3095 158.428 3.52032 7370.52 20 277.543 136.93 
-0.3087 267.922 9.52533 7491.87 32 338.08 68.671 
-0.3079 270.103 9.00267 7472.75 30 263.232 200.973 
-0.3071 255.423 4.25669 7405.58 15 320.387 0 
-0.3063 245.362 5.17943 7405.23 19 351.821 184.156 
-0.3055 240.997 4.01628 7298.82 15 329.052 112.106 
-0.3047 246.606 5.47969 7390.86 20 292.152 79.2785 
-0.3039 332.822 5.54658 7351.66 15 352.676 86.531 
-0.3031 314.146 5.93338 7398.87 17 327.374 0 
-0.3023 286.061 4.44947 7322.93 14 344.044 0 
-0.3015 179.304 4.38262 7405.16 22 367.213 76.7031 
-0.3007 258.673 5.46042 7464.38 19 239.944 122.85 
-0.2999 211.128 3.75307 7414.34 16 271.951 170.225 
-0.2991 326.897 6.5374 7370.26 18 338.115 186.825 
-0.2983 231.141 7.70407 7443.72 30 311.174 87.2916 
-0.2975 268.418 7.45543 7344.09 25 427.308 92.9674 
-0.2967 281.484 6.25468 7403.25 20 259.722 79.0455 
-0.2959 250.269 6.39522 7408.81 23 292.108 0 
-0.2951 266.677 5.3331 7434.16 18 311.943 0 
-0.2943 332.773 7.02463 7402.68 19 264.583 160.729 
-0.2935 303.997 5.40393 7338.42 16 343.257 0 
-0.2927 223.257 4.21673 7425.45 17 348.662 106.568 
-0.2919 171.141 3.42253 7484.12 18 376.44 162.909 
-0.2911 321.402 6.78459 7349.75 19 395.243 183.131 
-0.2903 273.945 4.86973 7409.36 16 316.728 195.381 
-0.2895 264.263 5.87203 7366.71 20 288.679 0 
-0.2887 261.547 5.81168 7441.12 20 304.845 78.8022 
-0.2879 254.265 3.67241 7228.03 13 343.298 183.254 
-0.2871 303.888 7.09012 7364.91 21 263.202 177.448 
-0.2863 285.403 7.61012 7366.57 24 336.786 109.904 
-0.2855 250.273 6.11727 7446.66 22 296.488 195.224 
-0.2847 303.417 5.39364 7390.07 16 405.439 110.269 
-0.2839 231.813 5.92361 7345.66 23 293.701 189.977 
-0.2831 241.708 2.95396 7543.39 11 239.728 0 
-0.2823 299.655 7.3243 7424.73 22 338.524 153.406 
-0.2815 219.354 5.60524 7418.42 23 233.216 151.622 
-0.2807 245.385 4.08941 7564.41 15 288.416 0 
-0.2799 289.486 8.68385 7425.36 27 310.974 72.1001 
-0.2791 233.711 5.71246 7383.6 22 449.021 76.5158 
-0.2783 277.877 5.86579 7418.55 19 359.515 182.117 
-0.2775 374.933 9.16426 7401.36 22 291.236 98.1572 
-0.2767 296.949 7.91798 7439.39 24 369.908 149.068 
-0.2759 316.883 8.4495 7396.17 24 383.421 0 
-0.2751 199.452 5.09669 7387.61 23 366.583 0 
-0.2743 169.824 2.83016 7424.25 15 316.175 87.039 
-0.2735 213.488 4.5066 7371.82 19 331.658 80.3645 
-0.2727 268.745 6.27019 7316.06 21 363.944 98.8171 
-0.2719 234.902 4.17568 7368.54 16 310.655 0 
-0.2711 244.694 4.89347 7359.61 18 422.783 210.046 
-0.2703 243.956 7.31806 7389.6 27 319.735 90.3722 
-0.2695 318.93 6.7324 7377.77 19 260.114 160.729 
-0.2687 232.39 5.68017 7282.55 22 285.871 153.406 
-0.2679 215.219 4.78225 7429.49 20 170.086 79.0455 
-0.2671 304.945 4.74319 7332.23 14 216.824 0 
-0.2663 255.48 5.10917 7445.72 18 300.345 0 
-0.2655 223.779 5.46969 7423.17 22 455.522 76.7031 
-0.2647 229.43 4.33331 7413.31 17 302.001 0 
-0.2639 277.177 6.77487 7355.94 22 334.272 97.612 
-0.2631 293.67 6.85173 7376.4 21 349.57 0 
-0.2623 265.111 5.30178 7303.74 18 232.8 0 
-0.2615 225.805 4.26485 7406.63 17 376.379 107.51 
-0.2607 292.747 10.0827 7375.79 31 277.058 224.346 
-0.2599 167.602 3.53798 7401.64 19 263.877 102.032 
-0.2591 332.099 7.0104 7428.31 19 402.007 160.729 
-0.2583 323.357 5.74809 7446.8 16 381.505 0 
-0.2575 200.669 4.68189 7341.42 21 332.461 116.331 
-0.2567 345.163 6.13571 7450.93 16 246.848 195.381 
-0.2559 377.807 7.55552 7449.05 18 238.41 204.773 
-0.2551 256.392 8.54569 7347.78 30 317.681 156.396 
-0.2543 215.077 3.58431 7455.88 15 335.188 0 
-0.2535 266.851 5.63304 7452.69 19 267.525 80.0856 
-0.2527 240.139 7.20356 7470.45 27 250.719 143.998 
-0.2519 180.044 3.60057 7425.29 18 252.829 82.1134 
-0.2511 220.5 4.65461 7485.69 19 348.588 160.729 
-0.2503 352.047 5.86696 7422.32 15 347.362 0 
-0.4993 265.465 6.19366 7388.63 21 201.583 176.646 
-0.4985 206.253 4.58302 7387.05 20 345.91 179.752 
-0.4977 209.889 6.52934 7407.73 28 384.261 89.4948 
-0.4969 358.379 5.97248 7376.71 15 325.756 0 
-0.4961 331.608 6.63162 7378.85 18 464.42 164.227 
-0.4953 228.753 5.08298 7442.34 20 242.15 79.6983 
-0.4945 273.772 6.38749 7422.36 21 370.374 98.8171 
-0.4937 223.625 4.96904 7376.72 20 340.264 0 
-0.4929 241.378 3.48628 7438.42 13 327.757 363.579 
-0.4921 356.161 9.49685 7367.95 24 515.053 149.068 
-0.4913 233.877 5.19684 7372.94 20 315.802 79.2785 
-0.4905 341.785 8.35406 7318.85 22 238.02 76.8802 
-0.4897 279.86 4.35302 7264.19 14 231.666 0 
-0.4889 264.333 6.75462 7358.92 23 424.797 202.389 
-0.4881 305.681 7.47157 7350.67 22 267.862 76.8802 
-0.4873 290.148 6.12484 7405.34 19 343.66 80.6333 
-0.4865 245.181 5.99281 7419.7 22 425.587 76.7031 
-0.4857 326.045 7.24485 7380.1 20 326.104 236.356 
-0.4849 329.55 9.15341 7323.63 25 330.838 0 
-0.4841 244.892 3.80911 7442.17 14 275.91 178.388 
-0.4833 320.113 7.46868 7400.68 21 305.49 99.4156 
-0.4825 275.56 5.81689 7441.03 19 377.518 80.0856 
-0.4817 280.303 5.29416 7397.84 17 245.054 83.7397 
-0.4809 221.979 4.68584 7422.16 19 321.826 80.3645 
-0.4801 259.324 7.20284 7389.3 25 412.134 73.9933 
-0.4793 157.676 1.92699 7458.63 11 422.3 0 
-0.4785 287.925 5.43813 7443.7 17 351.4 0 
-0.4777 318.83 8.85564 7423.94 25 244.89 0 
-0.4769 254.516 8.76595 7399.88 31 313.909 171.632 
-0.4761 243.492 5.95154 7450.96 22 343.537 77.0444 
-0.4753 217.836 3.63029 7427.61 15 332.126 0 
-0.4745 268.202 5.95955 7289.72 20 229.371 0 
-0.4737 244.592 5.16318 7501.98 19 244.82 102.032 
-0.4729 294.458 4.58007 7363.2 14 316.137 89.1941 
-0.4721 334.267 4.08515 7295.45 11 345.82 224.722 
-0.4713 292.708 6.17888 7506.62 19 206.028 160.171 
-0.4705 262.398 5.24753 7354.78 18 278.036 0 
-0.4697 198.748 4.85788 7419.27 22 309.582 76.5158 
-0.4689 255.884 4.54867 7386.76 16 511.632 170.225 
-0.4681 305.634 5.7726 7417.62 17 275.014 192.23 
-0.4673 250.274 5.83924 7382.39 21 305.544 155.232 
-0.4665 256.244 5.12446 7292.22 18 313.121 163.604 
-0.4657 319.598 8.16682 7463.06 23 341.044 0 
-0.4649 329.92 4.76511 7472.08 13 171.595 209.98 
-0.4641 296.962 4.94895 7379.18 15 291.101 135.885 
-0.4633 263.986 6.45246 7419.94 22 346.122 76.8802 
-0.4625 272.589 4.84563 7420.21 16 411.95 85.1125 
-0.4617 241.075 5.89246 7350.18 22 308.338 0 
-0.4609 286.297 6.6797 7430.96 21 174.532 116.331 
-0.4601 213.506 4.74419 7387.24 20 281.615 117.785 
-0.4593 262.303 7.86843 7354.59 27 260.783 0 
-0.4585 274.78 6.71629 7377.2 22 274.28 0 
-0.4577 223.093 6.9401 7362.69 28 346.453 142.677 
-0.4569 348.055 7.73391 7332.87 20 225.164 0 
-0.4561 182.597 3.65163 7394.57 18 422.724 124.63 
-0.4553 236.231 5.5116 7427.27 21 325.655 177.448 
-0.4545 322.844 7.89107 7455.8 22 414.658 76.7031 
-0.4537 261.642 4.65102 7421.34 16 287.3 84.6795 
-0.4529 364.59 6.48106 7364.38 16 285.78 110.269 
-0.4521 266.649 4.44378 7426.03 15 346.289 174.078 
-0.4513 354.401 9.05615 7371.05 23 264.204 227.385 
-0.4505 365.184 9.73743 7440.76 24 430.309 0 
-0.4497 302.774 5.71859 7460.03 17 242.21 83.0049 
-0.4489 325.294 6.86676 7364.22 19 387.313 80.3645 
-0.4481 346.06 8.45853 7409.06 22 452.656 0 
-0.4473 264.431 5.58197 7445.93 19 335.417 205.533 
-0.4465 281.223 6.24888 7391.53 20 418.167 79.0455 
-0.4457 338.629 7.90068 7387.3 21 265.161 192.991 
-0.4449 387.062 9.89077 7419.5 23 363.533 75.6561 
-0.4441 371.605 7.43148 7375.9 18 369.669 211.762 
-0.4433 244.875 6.52946 7403.41 24 399.11 169.219 
-0.4425 205.144 3.6467 7515.32 16 278.909 85.1125 
-0.4417 275.122 4.89065 7318.58 16 264.544 338.663 
-0.4409 222.044 5.67399 7394.94 23 192.683 150.982 
-0.4401 241.198 4.28761 7330.93 16 341.408 0 
-0.4393 295.808 9.5308 7430.82 29 310.395 211.809 
-0.4385 144.195 2.88365 7511.81 18 428.418 82.1134 
-0.4377 347.459 6.17652 7377.71 16 197.308 131.704 
-0.4369 257.296 6.86066 7413.52 24 464.317 74.9398 
-0.4361 265.785 5.90585 7405.5 20 264.288 158.091 
-0.4353 391.473 6.95894 7399.26 16 419.783 111.396 
-0.4345 288.777 6.41672 7375.69 20 307.73 236.356 
-0.4337 306.899 7.50136 7337.34 22 404.303 0 
-0.4329 251.886 5.87685 7376.44 21 392.288 99.4156 
-0.4321 215.503 3.83085 7342.13 16 428.897 195.381 
-0.4313 254.001 6.7728 7420.4 24 320.826 95.7335 
-0.4305 260.205 4.04729 7320.96 14 319.04 0 
-0.4297 250.023 6.66672 7407.1 24 316.193 74.8155 
-0.4289 269.72 4.1953 7268 14 392.276 116.824 
-0.4281 295.151 5.5746 7387.03 17 308.062 83.0049 
-0.4273 300.656 5.67858 7313.45 17 298.521 0 
-0.4265 257.526 6.29455 7404.33 22 289.139 76.7031 
-0.4257 335.488 5.21826 7383.03 14 390.24 116.824 
-0.4249 228.588 3.30156 7253.8 13 463.691 90.9094 
-0.4241 264.28 5.87239 7279.58 20 384.895 101.378 
-0.4233 315.376 9.46048 7371.53 27 374.325 144.2 
-0.4225 207.95 3.46554 7418.69 15 333.369 0 
-0.4217 265.18 4.41929 7453.1 15 288.232 113.351 
-0.4209 210.218 4.43757 7385.08 19 345.199 80.3645 
-0.4201 310.469 8.62342 7348.93 25 262.111 73.7654 
-0.4193 337.97 9.38726 7416.71 25 405.384 226.079 
-0.4185 255.862 7.67523 7358.03 27 332.017 90.3722 
-0.4177 344.62 8.80623 7509.91 23 269.048 75.4912 
-0.4169 280.026 6.84451 7371.94 22 294.195 76.7031 
-0.4161 444.035 7.89329 7279.38 16 316.007 220.537 
-0.4153 294.931 9.17487 7379.12 28 380.777 89.4948 
-0.4145 398.669 7.97271 7400.85 18 351.083 81.4807 
-0.4137 274.787 6.10587 7441.92 20 213.882 180.656 
-0.4129 217.188 3.86081 7432.94 16 298.199 0 
-0.4121 389.113 5.62006 7397.32 13 348.604 0 
-0.4113 220.865 4.17154 7414.28 17 282.079 84.0885 
-0.4105 236.558 4.73077 7408.26 18 226.905 187.995 
-0.4097 242.578 4.04262 7419.71 15 477.981 0 
-0.4089 225.181 5.50396 7392.86 22 334.887 0 
-0.4081 314.701 8.39134 7368.38 24 336.29 0 
-0.4073 269.67 5.39294 7435.14 18 286.896 105.023 
-0.4065 267.408 5.05062 7295.93 17 217.44 83.3767 
-0.4057 194.491 4.9699 7382.84 23 295.383 170.48 
-0.4049 298.629 8.62633 7453.92 26 212.374 146.025 
-0.4041 268.479 7.75541 7371.26 26 368.254 0 
-0.4033 235.788 3.66751 7310.41 14 262.624 179.589 
-0.4025 224.031 3.23574 7459.81 13 650.013 90.9094 
-0.4017 250.782 3.06486 7493.56 11 427.474 96.5489 
-0.4009 267.925 5.95339 7354.07 20 305.866 100.052 
-0.4001 262.4 6.41368 7448.55 22 380.107 0 
-0.3993 250.536 5.28866 7491.86 19 426.922 160.171 
-0.3985 288.511 7.0519 7330.8 22 253.005 153.406 
-0.3977 345.596 8.06325 7338.59 21 268.426 0 
-0.3969 224.785 4.24558 7454.73 17 340.514 0 
-0.3961 345.678 7.29704 7389.36 19 232.09 242.611 
-0.3953 313.906 8.71888 7376.72 25 327.3 0 
-0.3945 247.964 7.16279 7419.69 26 327.632 145.815 
-0.3937 196.065 5.66362 7282.32 26 307.577 91.6271 
-0.3929 245.754 3.82252 7356.98 14 407.103 89.1941 
-0.3921 258.574 6.32017 7363.2 22 327.487 76.7031 
-0.3913 315.054 6.65058 7390.78 19 265.16 102.032 
-0.3905 214.582 4.05288 7378.12 17 205.816 83.3767 
-0.3897 137.219 1.52453 7367.62 10 207.414 136.93 
-0.3889 275.876 6.43658 7303.07 21 305.557 77.6162 
-0.3881 270.71 5.41375 7297.05 18 345.712 0 
-0.3873 230.39 5.37531 7409.64 21 250.716 116.331 
-0.3865 279.414 5.89826 7459.21 19 285.161 80.3645 
-0.3857 220.971 3.68254 7397.78 15 357.937 0 
-0.3849 321.255 8.20916 7488.81 23 227.832 75.4912 
-0.3841 269.211 4.48648 7372.49 15 323.631 0 
-0.3833 262.825 6.71607 7268.16 23 320.9 151.312 
-0.3825 222.633 5.68904 7426.08 23 260.029 75.4912 
-0.3817 288.066 6.72099 7324.61 21 335.289 213.606 
-0.3809 298.964 7.63957 7381.51 23 294.698 322.384 
-0.3801 306.83 7.49966 7392.52 22 355.053 175.202 
-0.3793 197.866 4.17682 7440.75 19 330.882 80.8879 
-0.3785 237.25 7.90767 7445.92 30 306.101 69.9986 
-0.3777 224.768 5.7436 7375.05 23 352.878 0 
-0.3769 173.473 3.27645 7372.98 17 304.691 83.7397 
-0.3761 318.489 8.13848 7377.45 23 360.915 75.6561 
-0.3753 233.122 5.69806 7434.31 22 324.236 0 
-0.3745 269.488 7.78455 7441.5 26 341.339 198.589 
-0.3737 238.218 5.82263 7405.85 22 224.909 0 
-0.3729 153.906 2.73588 7405.3 16 275.153 0 
-0.3721 277.325 4.92981 7342.03 16 294.661 110.269 
-0.3713 305.64 6.11228 7402.86 18 340.488 0 
-0.3705 264.62 5.58595 7460.34 19 355.235 80.0856 
-0.3697 296.011 5.26198 7322.67 16 323.06 0 
-0.3689 354.424 10.6318 7349.51 27 293.249 190.926 
-0.3681 293.417 5.86784 7500.24 18 258.197 81.8019 
-0.3673 293.412 6.84571 7428.29 21 267.716 0 
-0.3665 296.881 8.57584 7361.73 26 393.79 179.974 
-0.3657 269.902 6.29718 7353.68 21 278.703 155.232 
-0.3649 255.826 4.83187 7470.26 17 334.01 0 
-0.3641 224.41 4.98648 7435.62 20 224.253 100.707 
-0.3633 255.519 7.94881 7461.06 28 349.767 103.755 
-0.3625 243.497 5.95166 7452.98 22 356.645 76.7031 
-0.3617 309.443 5.84454 7354.28 17 343.401 83.7397 
-0.3609 254.108 5.92869 7458.24 21 289.681 155.232 
-0.3601 183.938 4.08717 7432.69 20 296.359 0 
-0.3593 261.845 5.52737 7430.52 19 316.402 0 
-0.3585 211.325 3.75658 7390.56 16 242.843 0 
-0.3577 234.121 6.24271 7366.34 24 290.545 149.068 
-0.3569 225.153 6.25373 7368.5 25 319.979 73.7654 
-0.3561 185.201 3.90948 7384.63 19 298.726 0 
-0.3553 243.515 7.0343 7335.75 26 274.712 237.605 
-0.3545 207.121 7.13358 7431.56 31 321.765 69.3428 
-0.3537 319.191 9.57493 7403.15 27 268.665 72.1927 
-0.3529 234.858 6.5233 7397.39 25 263.744 147.531 
-0.3521 289.233 7.3909 7305.02 23 470.902 190.928 
-0.3513 412.941 5.50542 7470.96 12 338.238 190.576 
-0.3505 203.381 4.51921 7493.57 20 222.153 100.707 
-0.3497 273.55 6.68621 7407.72 22 194.06 114.913 
-0.3489 231.077 4.36443 7442.07 17 321.476 108.49 
-0.3481 270.859 4.21301 7390.61 14 180.018 226.905 
-0.3473 284.205 5.36787 7345.67 17 346.216 0 
-0.3465 216.683 2.88887 7307.69 12 261.133 95.2879 
-0.3457 311.346 7.61004 7433.25 22 305.509 114.913 
-0.3449 305.779 5.09589 7386.24 15 177.445 0 
-0.3441 237.553 4.75066 7450.67 18 251.942 0 
-0.3433 272.813 4.84961 7444.2 16 366.143 85.1125 
-0.3425 328.72 8.39993 7357.51 23 392.799 226.425 
-0.3417 209.673 5.59082 7414.31 24 339.267 0 
-0.3409 184.801 4.10635 7404.61 20 238.271 100.052 
-0.3401 283.919 7.2551 7319.45 23 339.604 190.928 
-0.3393 407.397 10.4104 7362.43 23 402.247 111.098 
-0.3385 231.736 4.8918 7352.35 19 312.177 140.548 
-0.3377 242.749 3.77578 7461.12 14 398.482 89.7945 
-0.3369 280.081 7.46821 7528.1 24 266.353 74.5338 
-0.3361 241.389 4.55919 7375.72 17 170.07 83.0049 
-0.3353 373.051 7.46039 7429.5 18 374.362 0 
-0.3345 272.173 8.1645 7442.12 27 276.029 0 
-0.3337 301.954 6.03858 7411.62 18 260.124 0 
-0.3329 291.851 9.40331 7390.97 29 352.044 299.618 
-0.3321 315.104 7.00173 7367.51 20 265.451 158.091 
-0.3313 319.741 9.2362 7356.35 26 331.746 72.9075 
-0.3305 305.24 5.42603 7494.99 16 509.886 86.3409 
-0.3297 266.557 4.44225 7346.36 15 595.508 112.106 
-0.3289 178.937 2.98204 7453.3 15 529.772 175.085 
-0.3281 263.059 5.553 7490.58 19 466.837 185.189 
-0.3273 254.687 5.94221 7325.84 21 347.833 78.3935 
-0.3265 279.48 4.3471 7328.59 14 311.866 267.525 
-0.3257 255.714 3.69334 7350.09 13 374.218 90.9094 
-0.3249 340.375 5.29428 7372.84 14 225.415 0 
-0.3241 274.357 8.23001 7388.26 27 293.457 72.2752 
-0.3233 206.361 4.58543 7426.83 20 457.564 101.378 
-0.3225 325.39 9.03786 7474 25 402.169 0 
-0.3217 230.455 8.70534 7457.97 34 352.437 150.937 
-0.3209 258.996 4.02849 7441.39 14 366.971 89.1941 
-0.3201 259.716 7.21373 7358 25 264.618 0 
-0.3193 241.494 3.75626 7336.14 14 265.458 89.1941 
-0.3185 271.153 6.02512 7375.48 20 283.287 157.604 
-0.3177 231.712 5.66359 7423.37 22 238.862 97.0757 
-0.3169 295.319 7.2183 7414.66 22 438.561 76.7031 
-0.3161 354.949 8.28145 7354.11 21 348.053 78.0321 
-0.3153 223.751 3.97746 7261.38 16 316.23 0 
-0.3145 286.751 5.41596 7424.74 17 365.083 0 
-0.3137 230.263 4.60488 7357.33 18 413.401 0 
-0.3129 177.7 1.57942 7425.96 8 607.783 111.396 
-0.3121 267.434 5.64535 7422.54 19 321.69 80.6333 
-0.3113 243.821 7.04314 7347.89 26 287.016 164.174 
-0.3105 198.144 4.84313 7318.7 22 332.833 0 
-0.3097 190.657 3.81282 7375.18 18 286.904 0 
-0.3089 290.56 7.10198 7333.07 22 304.305 96.5489 
-0.3081 286.877 7.01196 7317.1 22 363.273 153.406 
-0.3073 387.969 6.89665 7406.24 16 338.485 214.656 
-0.3065 311.916 7.97052 7462.3 23 388.588 171.12 
-0.3057 248.865 3.87091 7382.03 14 408.987 0 
-0.3049 364.423 7.69273 7316.94 19 382.295 80.6333 
-0.3041 320.156 9.24819 7392.24 26 290.414 146.025 
-0.3033 343.509 6.48797 7368.17 17 319.17 83.3767 
-0.3025 215.513 5.98597 7407.39 25 389.056 147.531 
-0.3017 365.888 7.72365 7292.23 19 386.669 0 
-0.3009 293.196 5.21193 7363.33 16 333.674 85.5383 
-0.3001 248.638 4.41986 7405.97 16 280.43 171.077 
-0.2993 236.383 4.98989 7359.76 19 434.076 0 
-0.2985 251.285 6.70037 7446.92 24 294.298 183.724 
-0.2977 298.356 5.96661 7313.14 18 328.195 0 
-0.2969 222.069 5.92135 7382.74 24 338.924 0 
-0.2961 320.522 7.12211 7349.82 20 340.753 179.752 
-0.2953 223.526 5.21518 7383.16 21 327.88 156.443 
-0.2945 289.387 4.50121 7384.65 14 403.11 89.1941 
-0.2937 223.057 2.97384 7432.76 12 359.946 149.068 
-0.2929 295.109 8.19678 7385.5 25 260.697 147.531 
-0.2921 288.921 4.81495 7447.97 15 367.653 87.039 
-0.2913 219.455 3.16965 7472.57 13 250.235 119.07 
-0.2905 313.478 4.52764 7475.14 13 175.643 0 
-0.2897 256.001 5.40401 7401.86 19 332.324 0 
-0.2889 180.835 2.81275 7413.91 14 399.333 0 
-0.2881 235.869 6.55137 7459.78 25 352.966 92.1796 
-0.2873 277.45 4.93204 7458.8 16 456.458 170.225 
-0.2865 286.446 5.72845 7334.51 18 421.27 246.287 
-0.2857 221.79 7.14597 7382.54 29 325.801 0 
-0.2849 219.157 3.65231 7365.9 15 220.563 0 
-0.2841 290.92 7.43399 7382.86 23 314.898 0 
-0.2833 239.711 2.92956 7419.17 11 196.507 0 
-0.2825 312.639 6.25226 7351.89 18 351.143 81.4807 
-0.2817 315.174 6.65312 7422.44 19 295.619 183.131 
-0.2809 277.876 6.48323 7457.67 21 255.833 99.4156 
-0.2801 286.583 6.04957 7348.07 19 389.545 239.189 
-0.2793 256.905 6.56481 7421.91 23 218.82 0 
-0.2785 240.872 5.61989 7447.22 21 301.846 77.8293 
-0.2777 270.68 5.41316 7429.97 18 371.46 206.432 
-0.2769 330.378 8.07522 7377.25 22 475.496 76.8802 
-0.2761 208.761 3.47906 7505.54 15 204.404 0 
-0.2753 344.977 6.89897 7449.52 18 344.696 164.227 
-0.2745 234.105 4.68171 7448.2 18 442.287 105.881 
-0.2737 333.033 7.03011 7390.7 19 373.013 103.523 