ITEM: TIMESTEP
11000
ITEM: NUMBER OF CELLS
5000
ITEM: BOX BOUNDS or pp pp
-0.5 0.5
0 0.0002
-0.5 0.5
ITEM: CELLS xc c_1[1] c_1[2] c_2[1] c_2[2] c_2[3] c_3[1] 
-0.4999 372.907 6.62891 7423.39 16 353.237 85.1125 
-0.4991 355.91 5.53592 7393.1 14 158.593 0 
-0.4983 335.546 5.59196 7517.16 15 318.904 0 
-0.4975 364.959 7.29857 7441.03 18 308.801 0 
-0.4967 266.538 6.51482 7459.75 22 426.319 96.5489 
-0.4959 263.404 5.26764 7328.97 18 395.665 186.825 
-0.4951 303.41 4.71932 7399.36 14 273.751 115.375 
-0.4943 211.007 3.98536 7367.68 17 326.89 106.568 
-0.4935 264.813 5.59003 7354.58 19 224.72 0 
-0.4927 336.298 4.85723 7303.56 13 430.818 212.403 
-0.4919 236.937 6.05456 7398.52 23 288.812 0 
-0.4911 315.215 7.35441 7399.69 21 275.798 233.438 
-0.4903 394.348 7.8863 7430.28 18 203.28 81.4807 
-0.4895 337.469 11.9979 7393.93 32 391.297 68.671 
-0.4887 274.212 6.0931 7396.1 20 312.052 79.0455 
-0.4879 234.433 6.25102 7375.31 24 222.058 258.258 
-0.4871 227.089 4.79371 7434.39 19 398.817 80.6333 
-0.4863 344.179 9.17734 7444.67 24 348.86 0 
-0.4855 213.123 5.20924 7387.28 22 272.133 153.032 
-0.4847 271.363 6.02979 7389.33 20 266.419 100.707 
-0.4839 230.376 6.39879 7370.15 25 267.778 201.702 
-0.4831 254.301 5.9332 7318.99 21 248.273 99.4156 
-0.4823 285.432 4.43969 7560.22 14 375.084 0 
-0.4815 373.142 7.46221 7412.02 18 286.48 162.961 
-0.4807 322.501 8.59931 7344.72 24 315.253 94.4034 
-0.4799 293.657 7.50394 7505.76 23 430.301 151.622 
-0.4791 300.188 7.33733 7464.47 22 317.733 76.5158 
-0.4783 234.576 6.25483 7419.55 24 359.483 0 
-0.4775 341.702 5.69456 7324.94 15 161.972 114.66 
-0.4767 262.578 8.46015 7338.05 29 230.301 70.6898 
-0.4759 400.362 11.1202 7524.43 25 352.043 73.885 
-0.4751 307.306 8.19415 7386.96 24 345.257 109.904 
-0.4743 302.95 7.40482 7409.74 22 285.342 76.7031 
-0.4735 246.132 4.37531 7475.96 16 427.699 198.526 
-0.4727 281.706 6.25961 7488.38 20 288.103 79.0455 
-0.4719 180.517 4.01115 7433.81 20 469.518 200.105 
-0.4711 353.497 7.06935 7411.84 18 414.804 165.374 
-0.4703 258.793 7.18808 7387.92 25 307.062 147.273 
-0.4695 267.98 5.35916 7398 18 291.462 162.961 
-0.4687 235.732 4.45235 7436.23 17 487.652 215.02 
-0.4679 272.663 7.2704 7421.53 24 341.586 0 
-0.4671 229.746 4.08403 7563.52 16 280.668 85.1125 
-0.4663 315.712 8.41828 7451.32 24 308.779 75.0497 
-0.4655 240.178 6.13736 7436.74 23 267.015 75.6561 
-0.4647 432.318 9.60627 7413.12 20 309.203 0 
-0.4639 281.353 6.56435 7357.83 21 324.015 176.646 
-0.4631 262.286 6.70232 7374.85 23 229.366 94.9884 
-0.4623 271.025 6.6245 7411.53 22 216.742 0 
-0.4615 316.012 7.37301 7303.21 21 370.529 0 
-0.4607 202.978 3.15718 7362.98 14 317.151 0 
-0.4599 175.527 2.53518 7406.85 13 287.718 91.6271 
-0.4591 278.645 9.28739 7450.64 30 283.732 101.378 
-0.4583 396.647 6.61023 7326.52 15 283.547 0 
-0.4575 269.54 5.98928 7319.89 20 262.641 79.4976 
-0.4567 306.973 10.2316 7387.31 30 276.059 140.106 
-0.4559 252.96 6.74505 7418.75 24 331.808 0 
-0.4551 352.786 7.44708 7353.31 19 444.937 204.064 
-0.4543 365.514 10.1523 7315.21 25 358.054 182.619 
-0.4535 172.316 2.48881 7518.46 13 355.073 90.9094 
-0.4527 327.485 4.72995 7493.64 13 271.408 0 
-0.4519 313.966 8.37174 7376.49 24 456.386 149.88 
-0.4511 293.138 7.81636 7421.48 24 365.562 74.5338 
-0.4503 223.33 2.97748 7395.89 12 232.446 219.728 
-0.4495 315.417 10.513 7329.57 30 402.427 100.487 
-0.4487 249.138 4.70554 7525.65 17 393.076 190.887 
-0.4479 158.946 3.53184 7394.59 20 208.513 157.604 
-0.4471 198.037 6.38065 7318.1 29 381.88 215.045 
-0.4463 268.395 7.4548 7360.81 25 281.242 0 
-0.4455 264.835 5.88474 7264.75 20 302.08 79.2785 
-0.4447 270.137 6.60279 7486.53 22 369.247 154.089 
-0.4439 298.924 7.63854 7435.2 23 391.274 75.8112 
-0.4431 301.761 6.03471 7345.86 18 264.19 163.604 
-0.4423 223.791 5.47 7435.68 22 262.083 76.7031 
-0.4415 303.69 7.76033 7383.9 23 276.524 223.764 
-0.4407 244.059 6.5077 7414.42 24 451.895 169.219 
-0.4399 258.116 4.87512 7359.51 17 397.938 129.58 
-0.4391 246.552 4.93062 7497.89 18 452.235 82.1134 
-0.4383 294.541 8.18101 7435.32 25 222.658 122.021 
-0.4375 236.662 6.5734 7375.52 25 348.398 73.9933 
-0.4367 296.234 5.92419 7296.26 18 285.939 81.4807 
-0.4359 256.954 5.42414 7468.19 19 367.568 160.171 
-0.4351 309.852 7.57353 7444.2 22 303.183 230.06 
-0.4343 193.298 5.15418 7423.27 24 356.944 74.8155 
-0.4335 277.747 7.71456 7405.96 25 313.949 183.416 
-0.4327 188.16 3.97194 7374.03 19 434.443 80.6333 
-0.4319 306.846 8.52278 7426.77 25 260.294 147.273 
-0.4311 205.434 4.56481 7488.35 20 282.637 179.752 
-0.4303 281.824 5.3229 7439.79 17 299.159 0 
-0.4295 216.934 5.54341 7413.83 23 291.548 0 
-0.4287 210.276 3.27069 7422.97 14 405.586 89.1941 
-0.4279 319.454 7.80822 7442.42 22 315.631 0 
-0.4271 296.107 9.54042 7453.61 29 268.986 70.8044 
-0.4263 305.944 8.15783 7401.75 24 294.193 94.4034 
-0.4255 264.116 3.52126 7456 12 422.111 188.807 
-0.4247 253.301 7.87982 7333.47 28 500.184 208.567 
-0.4239 243.003 4.85966 7296.24 18 331.717 81.8019 
-0.4231 256.674 4.84789 7390.98 17 363.437 166.753 
-0.4223 210.891 5.6233 7342.4 24 340.987 94.4034 
-0.4215 250.213 5.55984 7361.57 20 378.257 178.855 
-0.4207 280.229 6.53812 7334.7 21 245.219 156.064 
-0.4199 346.82 9.24777 7439.69 24 271.977 0 
-0.4191 221.772 7.39177 7400.18 30 377.278 279.697 
-0.4183 376.926 7.53789 7496.63 18 382.406 81.8019 
-0.4175 328.139 5.8331 7404.95 16 267.985 84.6795 
-0.4167 167.601 3.72416 7406.68 20 450.127 133.899 
-0.4159 321.036 5.70683 7406.02 16 288.328 195.381 
-0.4151 223.928 5.97091 7401.85 24 224.855 168.646 
-0.4143 361.077 8.8256 7494.89 22 289.368 0 
-0.4135 190.637 4.87142 7420.9 23 350.543 0 
-0.4127 284.066 6.94325 7376.36 22 363.224 0 
-0.4119 199.698 2.88428 7380.83 13 389.528 0 
-0.4111 246.968 5.48773 7435.37 20 339.447 0 
-0.4103 240.035 4.80031 7437.41 18 336.414 81.4807 
-0.4095 212.546 6.13969 7331.37 26 324.546 91.267 
-0.4087 262.186 6.11716 7527.04 21 560.959 78.3935 
-0.4079 195.89 5.00566 7314.32 23 297.339 207.346 
-0.4071 318.653 7.78865 7409.83 22 304.585 77.1923 
-0.4063 269.186 6.87863 7369.51 23 266.206 95.4641 
-0.4055 196.845 2.40568 7461.45 11 316.519 0 
-0.4047 377.021 6.70204 7469.88 16 243.963 169.359 
-0.4039 259.477 6.05395 7454.58 21 292.107 194.161 
-0.4031 367.848 8.17372 7366.51 20 344.118 79.2785 
-0.4023 255.969 5.40334 7373.73 19 262.902 161.267 
-0.4015 238.817 3.71463 7287.42 14 196.78 88.5933 
-0.4007 288.485 6.73075 7449.33 21 209.853 176.646 
-0.3999 255.718 4.26161 7415.58 15 331.128 87.5423 
-0.3991 169.221 4.13617 7427.4 22 309.209 96.5489 
-0.3983 277.006 6.46293 7381.25 21 338.144 78.5433 
-0.3975 307.742 9.5734 7452.12 28 379.642 142.84 
-0.3967 280.537 6.85699 7363.75 22 323.464 97.0757 
-0.3959 277.231 4.62013 7431.01 15 236.766 0 
-0.3951 392.656 7.85247 7440.13 18 210.008 81.8019 
-0.3943 350.205 9.7271 7343.31 25 261.198 181.049 
-0.3935 197.293 4.16472 7499.27 19 427.834 183.131 
-0.3927 246.708 6.30424 7470.23 23 396.706 150.982 
-0.3919 226.107 5.27539 7372.84 21 236.123 98.2313 
-0.3911 278.18 4.01782 7440.21 13 177.02 0 
-0.3903 286.975 6.69552 7434.93 21 257.437 78.2215 
-0.3895 275.926 6.13118 7322.27 20 267.717 157.604 
-0.3887 358.008 9.54608 7364.93 24 358.215 95.2879 
-0.3879 271.615 3.92299 7411 13 304.589 90.9094 
-0.3871 280.462 6.23196 7434.42 20 336.375 79.0455 
-0.3863 370.405 12.3458 7432.25 30 331.781 86.7852 
-0.3855 354.879 6.70271 7390.83 17 311.373 83.7397 
-0.3847 293.644 8.15609 7347.78 25 279.411 147.273 
-0.3839 335.163 6.7027 7429.6 18 342.142 0 
-0.3831 330.445 9.17826 7379.85 25 317.133 73.885 
-0.3823 343.758 7.63843 7425.5 20 332.216 0 
-0.3815 247.325 5.22087 7363.51 19 303.707 80.6333 
-0.3807 383.978 9.81195 7335.41 23 354.225 151.573 
-0.3799 224.633 5.98972 7459.65 24 250.191 75.142 
-0.3791 231.674 4.3757 7391.72 17 337.502 0 
-0.3783 280.788 6.23922 7410.1 20 202.469 78.8022 
-0.3775 257.762 6.87309 7374.09 24 377.874 74.5338 
-0.3767 214.671 3.81605 7397.68 16 450.487 84.6795 
-0.3759 308.954 10.6408 7298.05 31 478.448 0 
-0.3751 326.29 7.97532 7488.44 22 456.638 76.7031 
-0.3743 302.89 4.71124 7503.12 14 231.778 89.1941 
-0.3735 239.122 3.71936 7284.54 14 216.286 89.1941 
-0.3727 248.808 4.42288 7430.88 16 325.361 84.6795 
-0.3719 295.051 6.22834 7359.18 19 407.854 0 
-0.3711 286.422 7.95551 7454.28 25 360.992 185.143 
-0.3703 379.328 10.9575 7318.15 26 417.234 0 
-0.3695 190.582 6.35221 7417.59 30 308.816 69.9355 
-0.3687 173.494 3.66235 7351.92 19 495.523 80.3645 
-0.3679 319.403 6.74238 7355.22 19 363.864 160.171 
-0.3671 279.598 4.97021 7450.04 16 370.327 0 
-0.3663 154.778 4.98689 7513.91 29 283.26 0 
-0.3655 266.824 10.6721 7434.58 36 372.578 147.922 
-0.3647 246.702 3.83727 7473.67 14 364.212 180.772 
-0.3639 274.671 4.2723 7365.9 14 375.985 0 
-0.3631 269.554 7.1875 7390.56 24 298.937 0 
-0.3623 217.593 3.3845 7354 14 295.67 116.824 
-0.3615 272.839 5.75945 7390.47 19 405.194 207.046 
-0.3607 343.38 9.53755 7479.24 25 362.598 93.366 
-0.3599 256.517 7.40989 7402.36 26 390.001 165.54 
-0.3591 190.265 4.86191 7333.06 23 230.585 75.6561 
-0.3583 314.199 6.63254 7363.01 19 277.492 241.572 
-0.3575 215.044 5.01728 7428.47 21 240.797 0 
-0.3567 281.996 5.95274 7534.72 19 392.869 200.499 
-0.3559 334.178 5.19788 7353.72 14 252.061 0 
-0.3551 241.833 6.71701 7421.45 25 289.642 73.885 
-0.3543 225.103 4.25159 7451.98 17 329.109 108.49 
-0.3535 328.207 5.8343 7362.25 16 332.859 84.6795 
-0.3527 241.278 5.09322 7382.22 19 429.71 80.3645 
-0.3519 278.071 7.10567 7344.93 23 274.806 75.4912 
-0.3511 262.841 4.96436 7439.85 17 387.506 0 
-0.3503 239.06 5.57761 7457.2 21 281.395 99.4156 
-0.3495 254.91 5.38099 7313.82 19 323.4 160.171 
-0.3487 301.482 5.69419 7297.85 17 358.506 0 
-0.3479 262.169 7.8644 7394.58 27 348.856 0 
-0.3471 216.8 5.29912 7459.16 22 322.619 115.841 
-0.3463 249.067 5.81109 7330.62 21 362.326 156.064 
-0.3455 270.832 5.41619 7371.32 18 268.068 82.4105 
-0.3447 256.979 5.99568 7345.23 21 439.644 254.425 
-0.3439 326.551 6.89328 7429.48 19 221.546 80.0856 
-0.3431 254.068 5.36321 7422.81 19 315.549 80.6333 
-0.3423 242.35 6.73138 7384.01 25 399.876 122.021 
-0.3415 240.698 7.22033 7392.79 27 171.936 104.194 
-0.3407 269.612 6.29042 7391.09 21 286.034 0 
-0.3399 284.411 7.89965 7377.96 25 281.388 217.469 
-0.3391 187.457 2.70748 7374.52 13 279.797 0 
-0.3383 226.817 5.03995 7360.7 20 242.968 135.376 
-0.3375 304.817 8.80509 7345.16 26 335.575 145.815 
-0.3367 310.613 5.86665 7370.9 17 374.774 209.468 
-0.3359 272.101 7.55774 7308.09 25 359.002 73.7654 
-0.3351 297.413 6.93905 7346.56 21 281.578 155.232 
-0.3343 234.346 5.46761 7400.94 21 192.405 0 
-0.3335 289.24 5.46296 7380.72 17 351.839 83.7397 
-0.3327 174.148 4.83705 7382.12 25 221.8 73.7654 
-0.3319 262.26 6.1189 7380.97 21 321.31 98.8171 
-0.3311 298.713 6.63751 7370.41 20 286.502 100.707 
-0.3303 276.08 4.90768 7441.79 16 213.043 0 
-0.3295 360.339 11.61 7352.34 29 305.181 201.226 
-0.3287 259.736 4.32857 7451.82 15 442.74 113.351 
-0.3279 238.021 5.02447 7346.63 19 299.361 120.413 
-0.3271 227.864 5.31638 7389.07 21 264.799 0 
-0.3263 231.985 5.41253 7393.23 21 243.551 98.2313 
-0.3255 239.986 4.53269 7458.3 17 349.991 0 
-0.3247 232.719 4.65399 7401.11 18 265.107 186.825 
-0.3239 267.857 5.65429 7384.68 19 339.166 0 
-0.3231 221.164 3.68576 7320.62 15 424.214 0 
-0.3223 271.533 4.82685 7393.29 16 562.014 195.381 
-0.3215 200.638 3.78952 7370.26 17 304.841 83.3767 
-0.3207 192.636 4.70849 7295.6 22 252.713 96.5489 
-0.3199 275.887 7.66289 7428.97 25 314.22 92.1796 
-0.3191 348.575 7.74546 7452.87 20 278.98 0 
-0.3183 276.768 3.68993 7306.95 12 289.069 188.807 
-0.3175 272.565 6.96496 7436.85 23 238.923 0 
-0.3167 252.157 7.00378 7468.93 25 347.796 0 
-0.3159 448.501 12.9556 7431.16 26 346.335 196.66 
-0.3151 172.565 4.79307 7387.94 25 276.676 73.7654 
-0.3143 302.573 7.05944 7440.7 21 267.672 0 
-0.3135 247.391 5.77198 7426.34 21 437.18 77.6162 
-0.3127 336.201 6.72346 7496.75 18 284.48 163.551 
-0.3119 288.461 8.9736 7345.34 28 258.057 103.755 
-0.3111 211.416 4.46285 7334.67 19 341.003 204.064 
-0.3103 245.398 5.72547 7415.97 21 414.521 233.438 
-0.3095 263.476 6.14726 7519.49 21 171.411 332.255 
-0.3087 233.301 6.22084 7399.74 24 309.108 168.646 
-0.3079 263.707 6.44564 7388.26 22 240.429 153.406 
-0.3071 307.833 8.20819 7359.4 24 427.46 74.6794 
-0.3063 305.609 5.09306 7304.92 15 405.922 174.078 
-0.3055 186.506 2.90097 7332.21 14 299.411 89.1941 
-0.3047 276.971 5.53897 7391.55 18 330.841 0 
-0.3039 237.802 6.07667 7300.28 23 361.923 75.9539 
-0.3031 249.068 7.1947 7439.5 26 334.782 242.454 
-0.3023 246.59 4.9314 7432.91 18 305.512 0 
-0.3015 264.517 7.34708 7461.38 25 318.479 122.021 
-0.3007 340.406 8.69855 7431.35 23 284.552 170.48 
-0.2999 351.728 8.20629 7340.2 21 406.402 331.03 
-0.2991 287.341 9.25801 7418.86 29 298.294 141.077 
-0.2983 360.357 6.80617 7312.6 17 251.643 0 
-0.2975 274.472 5.48898 7376.35 18 355.715 105.023 
-0.2967 304.819 7.78918 7357.95 23 392.403 75.4912 
-0.2959 273.111 4.24804 7347.51 14 238.546 89.1941 
-0.2951 272.294 4.53786 7417.63 15 300.129 88.0338 
-0.2943 243.504 4.3286 7285.04 16 286.638 111.396 
-0.2935 269.936 6.59789 7376.03 22 385.632 174.492 
-0.2927 261.861 5.81864 7362.26 20 340.29 0 
-0.2919 324.171 6.48288 7384.24 18 433.79 186.825 
-0.2911 371.112 7.83392 7371 19 355.965 80.3645 
-0.2903 293.917 7.18404 7439.07 22 408.246 175.902 
-0.2895 153.508 2.7288 7354.55 16 245.309 84.6795 
-0.2887 318.657 6.37261 7367.17 18 243.481 162.909 
-0.2879 263.517 5.85544 7371.57 20 283.384 78.8022 
-0.2871 259.856 6.64021 7351.81 23 499.755 151.622 
-0.2863 270.451 7.21141 7394.55 24 279.844 95.2879 
-0.2855 357.676 7.94769 7403.49 20 374.854 78.8022 
-0.2847 355.664 6.71755 7394.15 17 305.29 83.3767 
-0.2839 238.783 6.89761 7492.86 26 263.928 164.64 
-0.2831 210.955 3.74999 7385.37 16 357.515 85.1125 
-0.2823 332.742 8.87237 7429.17 24 248.766 0 
-0.2815 187.159 3.74287 7377.64 18 223.65 186.825 
-0.2807 328.438 8.02782 7439.96 22 259.754 76.8802 
-0.2799 346.932 10.7925 7372.29 28 393.625 175.175 
-0.2791 254.432 5.93625 7452.89 21 320.05 155.659 
-0.2783 260.868 5.79659 7492.17 20 332.771 157.604 
-0.2775 223.093 3.7179 7330.95 15 336.173 0 
-0.2767 299.286 9.97538 7392.24 30 199.85 86.7852 
-0.2759 276.501 7.37275 7422.38 24 448.134 74.9398 
-0.2751 198.991 3.31625 7375.41 15 312.583 113.351 
-0.2743 306.52 8.17318 7370.22 24 237.832 0 
-0.2735 263.97 9.67811 7333.96 33 315.74 68.1608 
-0.2727 371.578 9.08226 7269.97 22 327.519 76.5158 
-0.2719 298.829 3.65205 7284.18 11 213.816 96.5489 
-0.2711 270.563 6.91382 7399.85 23 295.947 75.6561 
-0.2703 298.384 7.62472 7437.05 23 336.687 151.908 
-0.2695 216.46 4.08835 7420.19 17 196.373 0 
-0.2687 269.176 4.18684 7366.59 14 478.689 0 
-0.2679 224.071 5.72578 7406.36 23 347.376 95.9469 
-0.2671 283.757 5.67467 7429.52 18 366.157 105.881 
-0.2663 263.849 8.79424 7352.3 30 298.613 0 
-0.2655 308.899 4.4615 7370.73 13 387.468 209.98 
-0.2647 215.244 4.7828 7415.03 20 564.565 79.2785 
-0.2639 281.109 6.55867 7414.41 21 496.965 78.2215 
-0.2631 278.47 7.11587 7397.4 23 298.693 201.131 
-0.2623 221.46 4.67487 7473.15 19 304.913 160.729 
-0.2615 216.388 4.32739 7386.45 18 261.3 0 
-0.2607 200.863 3.5706 7393.34 16 417.902 84.6795 
-0.2599 286.836 7.96701 7471.02 25 278.218 167.359 
-0.2591 290.847 5.49333 7473.21 17 227.147 83.3767 
-0.2583 229.617 4.84706 7510.21 19 338.576 120.413 
-0.2575 269.711 7.49134 7443.22 25 354.716 147.987 
-0.2567 307.545 6.83376 7354.71 20 326.36 178.855 
-0.2559 196.663 2.18497 7386.38 10 454.432 0 
-0.2551 215.973 4.55905 7499.99 19 320.764 102.766 
-0.2543 277.444 8.93913 7393.94 29 252.026 203.643 
-0.2535 285.627 5.71207 7438.67 18 325.916 81.8019 
-0.2527 241.863 4.83686 7334.03 18 327.791 81.8019 
-0.2519 287.919 6.07778 7302.92 19 343.592 0 
-0.2511 249.453 5.82009 7424.56 21 247.762 0 
-0.2503 190.084 2.32306 7413.81 11 581.014 0 
-0.4993 369.681 9.44663 7389.07 23 405.297 75.8112 
-0.4985 275.369 6.42474 7437.3 21 413.843 117.326 
-0.4977 311.161 6.91411 7318.82 20 262.535 0 
-0.4969 194.808 3.6794 7425.09 17 300.593 192.23 
-0.4961 271.89 6.34357 7397.94 21 341.033 156.014 
-0.4953 265.766 6.20068 7373.39 21 340.72 192.991 
-0.4945 199.063 4.64442 7448.67 21 326.783 78.0321 
-0.4937 273.253 3.33948 7406.99 11 311.858 0 
-0.4929 282.702 8.48035 7391.39 27 414.263 72.3457 
-0.4921 408.869 12.265 7456.03 27 278.355 340.017 
-0.4913 234.789 4.95623 7341.68 19 284.623 224.369 
-0.4905 359.12 8.77775 7369.85 22 313.779 97.612 
-0.4897 237.027 3.68678 7316.27 14 284.217 0 
-0.4889 230.437 5.12039 7372.71 20 344.044 118.849 
-0.4881 178.668 2.58055 7466.11 13 239.998 181.819 
-0.4873 275.293 7.03469 7422.5 23 231.069 113.528 
-0.4865 306.733 5.79336 7350.31 17 319.308 189.573 
-0.4857 328.913 8.03942 7501.76 22 403.847 0 
-0.4849 434.732 12.0749 7355.14 25 294.694 0 
-0.4841 286.11 5.40385 7401.99 17 390.74 83.0049 
-0.4833 236.565 3.94242 7404.04 15 328.797 0 
-0.4825 257.051 4.56942 7319.86 16 381.427 216.817 
-0.4817 336.257 8.21893 7398.71 22 289.442 153.76 
-0.4809 310.502 7.58941 7433.18 22 475.534 76.7031 
-0.4801 271.608 6.03523 7422.41 20 300.776 214.421 
-0.4793 276.42 7.06347 7411.89 23 303.751 75.9539 
-0.4785 287.373 5.42771 7289.37 17 315.241 107.51 
-0.4777 245.826 4.64299 7407.08 17 326.655 0 
-0.4769 325.305 8.31266 7416.36 23 307.652 202.389 
-0.4761 274.608 3.05095 7381.62 10 245.06 0 
-0.4753 179.589 2.9929 7404.02 15 422.452 87.039 
-0.4745 304.882 5.41967 7468.91 16 277.68 193.869 
-0.4737 270.516 6.91261 7349.98 23 321.04 171.12 
-0.4729 250.152 4.16885 7495.73 15 231.459 86.531 
-0.4721 160.24 3.38256 7414.5 19 325.012 80.6333 
-0.4713 266.46 3.25646 7412.71 11 290.809 99.8309 
-0.4705 281.301 8.43831 7323.73 27 233.405 161.715 
-0.4697 255.887 6.5388 7473.65 23 282.601 171.12 
-0.4689 217.371 4.34706 7369.79 18 235.36 81.8019 
-0.4681 305.989 7.47911 7493.79 22 421.806 153.032 
-0.4673 335.357 7.82433 7417.07 21 283.372 208.533 
-0.4665 284.616 5.37562 7382.77 17 349.312 0 
-0.4657 266.846 9.19059 7349.31 31 199.771 168.978 
-0.4649 286.774 7.32807 7344.93 23 390.655 0 
-0.4641 269.638 6.29104 7419.49 21 323.118 175.848 
-0.4633 298.242 6.95839 7429.56 21 312.936 0 
-0.4625 317.758 6.70767 7344.17 19 401.866 200.499 
-0.4617 234.813 4.69588 7473.43 18 223.669 105.881 
-0.4609 300.789 4.34436 7431.54 13 313.799 0 
-0.4601 230.159 4.60279 7396.08 18 214.782 81.8019 
-0.4593 312.147 8.32323 7353.26 24 308.897 74.8155 
-0.4585 243.461 5.1393 7459.91 19 284.22 0 
-0.4577 339.073 8.28776 7422.98 22 255.222 76.5158 
-0.4569 356.46 9.90083 7462.29 25 246.704 183.416 
-0.4561 322.434 5.37345 7345.66 15 308.935 87.039 
-0.4553 356.526 6.73381 7442.35 17 293.884 189.573 
-0.4545 295.511 6.56637 7331.07 20 245.435 78.8022 
-0.4537 208.58 4.86646 7441.85 21 383.719 99.4156 
-0.4529 258.107 6.022 7338.33 21 236.32 156.064 
-0.4521 340.894 9.08974 7453.53 24 299.453 74.9398 
-0.4513 279.326 6.20673 7404.58 20 254.807 101.378 
-0.4505 232.335 4.13006 7422.54 16 207.218 171.077 
-0.4497 211.707 4.93943 7464.89 21 256.445 77.8293 
-0.4489 237.336 3.69158 7503.19 14 358.899 89.1941 
-0.4481 252.491 4.48836 7358.81 16 291.244 85.1125 
-0.4473 273.648 6.08056 7413.51 20 309.7 79.2785 
-0.4465 200.291 2.22527 7403.48 10 323.028 0 
-0.4457 278.735 5.57424 7380.28 18 255.193 0 
-0.4449 183.465 3.46516 7595.41 17 356.172 84.0885 
-0.4441 212.764 3.78216 7535.44 16 336.513 84.6795 
-0.4433 258.237 6.59885 7418.82 23 388.93 75.9539 
-0.4425 317.34 5.99369 7421.56 17 319.315 83.7397 
-0.4417 252.003 6.99949 7436.66 25 338.605 147.273 
-0.4409 222.215 3.95016 7388.09 16 615.478 110.269 
-0.4401 310.336 6.89578 7409.03 20 343.499 78.8022 
-0.4393 319.521 9.22982 7372.08 26 268.622 164.64 
-0.4385 325.544 5.42528 7342.62 15 417.759 112.106 
-0.4377 288.492 5.44884 7379.13 17 240.323 83.3767 
-0.4369 248.85 5.80601 7450.35 21 384.487 99.4156 
-0.4361 282.226 7.21184 7472.66 23 427.52 94.9884 
-0.4353 202.22 6.0661 7413.41 27 297.388 72.2752 
-0.4345 213.346 6.16282 7508.89 26 296.255 91.267 
-0.4337 271.748 7.24602 7354.21 24 260.074 149.311 
-0.4329 315.793 5.61363 7331.98 16 314.056 111.396 
-0.4321 318.306 8.8411 7355.96 25 254.028 73.9933 
-0.4313 260.086 3.46753 7363.84 12 498.7 94.4034 
-0.4305 255.499 7.94819 7360.78 28 344.312 71.4199 
-0.4297 298.463 11.2743 7325.94 34 340.81 163.714 
-0.4289 238.477 3.17943 7331.1 12 323.593 0 
-0.4281 361.02 8.42309 7421.07 21 397.064 176.646 
-0.4273 346.274 10.0026 7370.05 26 279.402 72.9075 
-0.4265 249.772 4.71752 7369.01 17 263.703 0 
-0.4257 237.764 4.75488 7446.95 18 331.435 163.604 
-0.4249 274.926 9.46889 7404.5 31 219.062 154.806 
-0.4241 249.704 6.10336 7423.87 22 317.111 97.612 
-0.4233 219.146 6.08689 7371.73 25 241.484 73.885 
-0.4225 245.493 4.09121 7391.03 15 269.949 200.39 
-0.4217 383.863 6.39718 7303.65 15 452.161 0 
-0.4209 251.233 3.3495 7394.75 12 314.99 216.828 
-0.4201 234.089 5.98179 7494.76 23 384.471 75.4912 
-0.4193 259.616 5.48032 7358.04 19 378.783 160.729 
-0.4185 301.684 5.69799 7417.8 17 415.692 107.51 
-0.4177 290.628 7.10365 7428.79 22 360.002 174.492 
-0.4169 286.531 7.32184 7348.34 23 435.579 75.6561 
-0.4161 184.737 4.10492 7378.12 20 297.57 79.0455 
-0.4153 324.514 5.40812 7523.32 15 342.079 87.5423 
-0.4145 274.396 7.01175 7340.76 23 285.401 188.503 
-0.4137 237.514 3.69435 7399.67 14 204.584 203.968 
-0.4129 329.205 5.85205 7401.58 16 165.392 109.19 
-0.4121 437.806 5.35052 7344.97 11 268.081 0 
-0.4113 327.749 11.6523 7410.13 32 402.771 68.671 
-0.4105 211.839 5.88393 7402.62 25 354.355 73.9933 
-0.4097 225.939 5.77351 7365.78 23 285.256 75.4912 
-0.4089 270.874 7.52365 7369.93 25 402.811 166.337 
-0.4081 452.303 8.54279 7396.04 17 342.487 107.51 
-0.4073 352.416 9.39697 7405.23 24 325.053 74.6794 
-0.4065 245.666 4.63998 7408.47 17 351.583 83.0049 
-0.4057 262.427 4.95654 7519.8 17 291.702 83.3767 
-0.4049 244.602 5.97867 7413.71 22 350.255 0 
-0.4041 290.892 6.14054 7368.26 19 263.791 80.0856 
-0.4033 236.646 6.04712 7424.04 23 283.084 150.982 
-0.4025 349.771 8.54926 7395.23 22 291.603 77.1923 
-0.4017 266.006 4.7286 7372.44 16 169.973 85.5383 
-0.4009 264.464 6.17032 7409.35 21 419.832 77.8293 
-0.4001 249.925 8.05246 7349.43 29 275.043 317.504 
-0.3993 288.527 5.77005 7416.26 18 315.135 0 
-0.3985 311.27 7.95401 7377.12 23 317.224 171.12 
-0.3977 189.859 4.21874 7416.71 20 314.316 79.2785 
-0.3969 282.518 5.96376 7354.37 19 243.869 160.729 
-0.3961 414.088 11.9615 7354.88 26 429.48 91.267 
-0.3953 308.536 8.56973 7528.07 25 268.6 73.9933 
-0.3945 332.441 5.54023 7317.48 15 308.92 87.039 
-0.3937 272.86 6.9725 7363.6 23 285.792 75.6561 
-0.3929 238.335 5.03109 7420.5 19 378.623 160.729 
-0.3921 179.312 3.58593 7338.51 18 310.182 0 
-0.3913 407.508 10.4132 7394.91 23 398.041 75.6561 
-0.3905 361.481 8.83546 7374.93 22 257.858 76.7031 
-0.3897 266.39 6.80717 7404.07 23 295.358 170.48 
-0.3889 234.671 6.51808 7411.08 25 409.67 147.77 
-0.3881 297.392 7.92979 7375.67 24 276.368 336.091 
-0.3873 303.669 8.77192 7332.59 26 429.567 0 
-0.3865 284.779 8.22627 7418.75 26 365.373 73.0127 
-0.3857 301.421 9.04189 7428.7 27 184.722 161.715 
-0.3849 216.473 4.08859 7413.34 17 392.704 0 
-0.3841 246.038 5.19371 7339.23 19 302.911 103.523 
-0.3833 301.33 8.70436 7391.59 26 333.209 91.267 
-0.3825 179.712 2.79529 7380.81 14 276.166 89.1941 
-0.3817 250.566 6.12444 7445.99 22 339.127 0 
-0.3809 262.953 5.25862 7379.22 18 271.374 185.674 
-0.3801 264.624 7.05605 7381.59 24 333.23 149.068 
-0.3793 233.503 3.37255 7372.66 13 167.25 119.07 
-0.3785 194.46 3.45678 7388.24 16 215.178 84.6795 
-0.3777 268.596 6.26672 7458.32 21 372.519 155.659 
-0.3769 363.549 4.84691 7393.3 12 502.719 0 
-0.3761 315.36 8.40889 7368.83 24 345.758 0 
-0.3753 329.027 12.4289 7386.6 34 340.513 106.568 
-0.3745 264.544 5.29044 7428.6 18 373.29 211.762 
-0.3737 232.92 4.14046 7382.56 16 299.134 85.1125 
-0.3729 364.411 8.50221 7435.57 21 272.989 99.4156 
-0.3721 212.304 3.53811 7432.56 15 262.387 0 
-0.3713 241.48 3.75605 7433.7 14 274.97 90.3862 
-0.3705 276.627 7.68344 7483.67 25 297.592 0 
-0.3697 223.091 5.94859 7441.35 24 410.815 224.771 
-0.3689 286.838 4.46155 7361.57 14 242.403 178.331 
-0.3681 333.163 7.03286 7341.15 19 404.838 80.6333 
-0.3673 349.636 4.66142 7468.5 12 223.055 93.536 
-0.3665 214.101 4.28167 7347.37 18 360.527 124.63 
-0.3657 233.475 5.7067 7493.54 22 346.495 77.0444 
-0.3649 299.149 7.97665 7281.38 24 211.961 74.6794 
-0.3641 218.559 4.37082 7394.42 18 397.977 81.4807 
-0.3633 224.218 4.7331 7374.32 19 411.49 80.0856 
-0.3625 260.498 4.63069 7477.7 16 274.891 85.1125 
-0.3617 254.793 6.79392 7422.78 24 321.6 169.219 
-0.3609 297.537 8.26423 7432.55 25 451.503 92.9674 
-0.3601 327.16 4.72526 7314.05 13 372.047 92.3511 
-0.3593 242.819 7.01419 7394.08 26 360.862 327.347 
-0.3585 261.115 7.25258 7357.97 25 372.155 93.366 
-0.3577 277.906 7.4102 7375.67 24 350.93 184.583 
-0.3569 293.144 9.11928 7375.78 28 310.154 89.4948 
-0.3561 198.071 1.98055 7378.19 9 175.951 0 
-0.3553 261.798 5.23552 7530.13 18 399.192 187.995 
-0.3545 236.834 6.84129 7403.68 26 240.944 73.0127 
-0.3537 294.271 6.21186 7395.5 19 247.937 80.3645 
-0.3529 307.567 6.49255 7449.35 19 408.094 182.117 
-0.3521 156.719 4.17882 7384.27 24 269.252 0 
-0.3513 208.274 1.38838 7328.76 6 583.41 0 
-0.3505 158.81 2.11729 7372.04 12 291.153 216.828 
-0.3497 267.395 5.34746 7445.97 18 374.482 206.432 
-0.3489 350.652 9.34995 7335.01 24 468.122 74.5338 
-0.3481 271.072 8.43263 7384.39 28 370.668 160.987 
-0.3473 299.375 5.32179 7369.17 16 338.252 171.077 
-0.3465 259.448 4.90028 7439.3 17 317.22 83.3767 
-0.3457 307.348 7.8538 7333.97 23 282.81 0 
-0.3449 306.654 7.49535 7338.35 22 267.402 0 
-0.3441 271.275 6.932 7397.07 23 245.673 75.4912 
-0.3433 314.831 4.54718 7430.31 13 277.032 0 
-0.3425 224.566 5.48893 7422.49 22 308.428 306.014 
-0.3417 221.334 5.40994 7425.6 22 410.278 98.1572 
-0.3409 220.658 4.65795 7433.49 19 271.101 183.131 
-0.3401 230.849 4.87306 7339 19 356.295 0 
-0.3393 253.988 4.51497 7324.37 16 370.936 86.3409 
-0.3385 323.34 7.90321 7486.41 22 408.965 96.5489 
-0.3377 339.01 7.15628 7371.16 19 267.891 0 
-0.3369 292.317 6.17063 7380.6 19 245.047 80.0856 
-0.3361 335.134 5.5851 7471.11 15 324.682 0 
-0.3353 173.215 4.04134 7402.33 21 273.691 99.4156 
-0.3345 198.88 3.7563 7354.82 17 363.993 0 
-0.3337 208.46 3.70565 7399.01 16 382.417 0 
-0.3329 233.708 6.75099 7415.59 26 280.25 212.403 
-0.3321 275.289 6.42288 7293.33 21 447.058 117.326 
-0.3313 259.769 7.21522 7391.25 25 403.328 0 
-0.3305 304.741 6.09431 7325.31 18 281.52 81.8019 
-0.3297 374.029 4.98663 7484.01 12 369.031 0 
-0.3289 208.266 4.85913 7346.01 21 442.93 176.646 
-0.3281 240.155 4.80271 7222.55 18 353.512 231.92 
-0.3273 297.585 6.28183 7347.12 19 387.953 80.0856 
-0.3265 257.325 6.00374 7374.78 21 330.842 0 
-0.3257 200.993 2.67969 7362.41 12 248.453 0 
-0.3249 298.011 7.2841 7291.96 22 257.319 0 
-0.3241 207.091 5.29187 7468.31 23 337.773 171.758 
-0.3233 280.523 4.67499 7338.23 15 314.576 86.531 
-0.3225 241.018 3.48108 7336.71 13 314.987 212.403 
-0.3217 267.914 6.54846 7386.26 22 447.151 196.314 
-0.3209 291.45 8.74277 7467.8 27 250.001 72.1001 
-0.3201 193.913 3.23161 7351.27 15 285.363 86.531 
-0.3193 240.775 6.68762 7383.35 25 284.016 221.932 
-0.3185 305.426 5.42934 7350.71 16 285.552 111.396 
-0.3177 373.636 9.13255 7435.72 22 253.813 76.7031 
-0.3169 362.123 5.23023 7500.63 13 179.206 91.6271 
-0.3161 375.553 5.00696 7381.65 12 428.905 123.292 
-0.3153 185.185 4.93785 7420.56 24 301.854 149.631 
-0.3145 263.551 8.19869 7405.78 28 315.936 177.187 
-0.3137 400.29 6.22621 7498.21 14 424.706 177.187 
-0.3129 347.975 6.57231 7381.19 17 270.029 0 
-0.3121 293.911 3.91849 7445.63 12 265.1 0 
-0.3113 232.059 6.44554 7381.23 25 424.775 73.7654 
-0.3105 250.838 5.29503 7351.19 19 377.055 80.3645 
-0.3097 336.659 8.22875 7423.03 22 300.632 97.612 
-0.3089 257.308 4.85986 7430.91 17 305.448 83.3767 
-0.3081 229.757 5.10528 7446.32 20 494.184 179.752 
-0.3073 266.492 4.73725 7385.96 16 245.095 109.19 
-0.3065 207.299 5.29719 7398.31 23 232.518 186.589 
-0.3057 391.24 7.82415 7448.81 18 354.554 0 
-0.3049 238.177 5.29237 7431.14 20 337.284 0 
-0.3041 243.57 5.95343 7436.58 22 381.202 96.5489 
-0.3033 221.565 4.92326 7313.67 20 297.657 158.091 
-0.3025 280.386 8.09937 7426.86 26 513.904 91.9888 
-0.3017 235.886 3.66903 7328.41 14 445.208 0 
-0.3009 266.235 5.62006 7384.37 19 236.124 207.046 
-0.3001 297.034 7.59024 7390.61 23 205.56 75.6561 
-0.2993 388.816 7.34368 7363.22 17 358.331 83.0049 
-0.2985 330.579 9.91655 7456.96 27 358.626 144.2 
-0.2977 198.908 6.18774 7367.32 28 453.914 89.4948 
-0.2969 272.55 6.66178 7393.16 22 361.255 153.76 
-0.2961 264.45 3.5257 7399.1 12 123.323 94.4034 
-0.2953 213.104 3.7882 7392.49 16 278.078 236.563 
-0.2945 217.004 4.82192 7340.79 20 263.745 158.091 
-0.2937 234.122 4.68204 7457.92 18 380.19 81.8019 
-0.2929 197.883 3.73748 7370.93 17 473.371 107.51 
-0.2921 276.383 4.606 7353.6 15 302.529 200.39 
-0.2913 296.977 6.59894 7359.49 20 249.316 79.0455 
-0.2905 335.809 8.58107 7410.55 23 352.71 151.622 
-0.2897 330.649 7.34713 7379.16 20 350.641 0 
-0.2889 239.86 3.73084 7415.25 14 210.556 0 
-0.2881 271.691 6.94263 7342.81 23 380.246 202.389 
-0.2873 268.7 4.7765 7333.4 16 236.029 0 
-0.2865 275.659 6.12524 7477.87 20 204.239 78.8022 
-0.2857 308.11 7.53094 7314.74 22 295.949 97.612 
-0.2849 260.949 5.50846 7386.18 19 384.809 80.3645 
-0.2841 273.623 2.736 7438.57 9 482.797 105.881 
-0.2833 431.145 9.10118 7426.71 19 455.069 0 
-0.2825 345.863 8.838 7332.58 23 424.612 95.9469 
-0.2817 263.56 5.56358 7397.88 19 185.134 241.042 
-0.2809 281.475 5.31631 7280.26 17 260.913 0 
-0.2801 233.614 5.19098 7460.56 20 247.933 157.604 
-0.2793 318.06 4.59381 7378.49 13 265.366 0 
-0.2785 327.353 4.36434 7410.42 12 271.994 0 
-0.2777 330.291 7.70614 7348.53 21 195.054 213.326 
-0.2769 251.227 4.745 7401.66 17 317.184 83.0049 
-0.2761 382.013 8.9129 7446.83 21 356.578 0 
-0.2753 231.228 4.36727 7385.37 17 374.714 107.51 
-0.2745 196.039 4.35606 7515.21 20 301.219 157.604 