ITEM: TIMESTEP
15000
ITEM: NUMBER OF CELLS
5000
ITEM: BOX BOUNDS or pp pp
-0.5 0.5
0 0.0002
-0.5 0.5
ITEM: CELLS xc c_1[1] c_1[2] c_2[1] c_2[2] c_2[3] c_3[1] 
-0.4999 291.974 6.16339 7431.82 19 228.076 80.3645 
-0.4991 237.719 4.48987 7376.43 17 284.582 83.3767 
-0.4983 297.05 7.26063 7336.3 22 313.781 98.1572 
-0.4975 305.927 5.77814 7294.14 17 277.565 0 
-0.4967 194.263 3.66911 7306.13 17 242.38 189.573 
-0.4959 226.941 4.53844 7353.47 18 214.715 185.674 
-0.4951 231.925 5.41114 7382.93 21 336.424 77.8293 
-0.4943 310.027 9.30004 7346.94 27 212.36 90.0436 
-0.4935 353.915 7.07772 7343.28 18 291.146 81.4807 
-0.4927 266.405 5.62364 7484.92 19 251.162 80.3645 
-0.4919 367.636 7.35211 7370.07 18 328.631 0 
-0.4911 326.052 9.41849 7463.19 26 263.791 73.0127 
-0.4903 325.28 5.42087 7437.33 15 275.507 112.106 
-0.4895 360.051 9.60056 7388.42 24 364.001 0 
-0.4887 285.83 5.71612 7419.39 18 331.527 0 
-0.4879 264.095 6.74854 7429.77 23 368.252 150.982 
-0.4871 250.872 6.96809 7400.47 25 321.636 107.412 
-0.4863 161.879 2.8776 7435.9 16 405.598 85.1125 
-0.4855 304.224 7.43598 7359.86 22 149.601 76.8802 
-0.4847 191.843 2.77084 7429.21 13 338.477 0 
-0.4839 229.019 5.34334 7308.71 21 307.022 177.448 
-0.4831 227.86 4.55683 7416.31 18 208.464 0 
-0.4823 329.533 5.85788 7378.76 16 283.183 0 
-0.4815 265.265 8.252 7453.99 28 167.848 143.105 
-0.4807 329.506 7.68783 7356.02 21 192.021 98.8171 
-0.4799 301.105 8.36333 7387.63 25 291.95 73.885 
-0.4791 257.911 4.5847 7364.76 16 399.301 85.1125 
-0.4783 322.896 7.89236 7296.18 22 241.247 76.7031 
-0.4775 258.067 6.30778 7404.4 22 292.799 206.079 
-0.4767 287.614 5.75179 7332.82 18 262.973 0 
-0.4759 319.287 8.15887 7440.45 23 275.913 129.059 
-0.4751 216.383 5.28892 7344.15 22 403.044 190.72 
-0.4743 305.269 7.4615 7380.99 22 232.766 173.065 
-0.4735 251.566 3.35393 7469.59 12 217.909 0 
-0.4727 291.971 7.78524 7362.5 24 262.219 74.8155 
-0.4719 275.348 5.81242 7432.47 19 282.334 160.171 
-0.4711 287.193 5.42431 7430.32 17 472.022 83.3767 
-0.4703 340.672 6.05589 7402.65 16 343.602 0 
-0.4695 260.013 6.06646 7432.31 21 231.325 98.2313 
-0.4687 260.133 4.04617 7399.72 14 191.003 89.7945 
-0.4679 315.584 7.71362 7369.75 22 387.588 0 
-0.4671 287.361 5.74674 7420.77 18 249.864 208.152 
-0.4663 225.554 5.26248 7402.88 21 314.75 77.6162 
-0.4655 340.615 7.5686 7411.56 20 286.374 119.96 
-0.4647 353.811 8.648 7500.11 22 167.836 173.779 
-0.4639 339.411 6.41056 7401.8 17 390.855 83.7397 
-0.4631 197.625 5.05001 7499.43 23 273.551 76.1898 
-0.4623 333.745 9.64072 7320.95 26 320.821 0 
-0.4615 279.283 5.58519 7415.87 18 396.591 0 
-0.4607 313.132 6.26211 7415.42 18 305.202 81.4807 
-0.4599 263.861 4.10417 7451.1 14 208.901 88.5933 
-0.4591 274.003 5.17518 7356.21 17 339.016 83.0049 
-0.4583 362.585 5.2369 7527.59 13 318.198 303.971 
-0.4575 274.89 5.80275 7465.11 19 276.012 0 
-0.4567 366.588 5.702 7415 14 163.49 0 
-0.4559 284.284 5.68521 7275.68 18 344.847 123.292 
-0.4551 228.294 5.83371 7371.16 23 362.704 75.9539 
-0.4543 235.991 4.19505 7372.24 16 417.494 169.359 
-0.4535 287.129 4.78509 7380.2 15 267.296 0 
-0.4527 287.578 7.34859 7353.23 23 260.671 190.928 
-0.4519 257.749 4.58183 7378.2 16 374.646 85.5383 
-0.4511 222.825 4.45613 7424.55 18 377.1 82.1134 
-0.4503 292.153 6.49176 7388.32 20 260.994 0 
-0.4495 258.659 4.31062 7301.93 15 342.024 87.039 
-0.4487 277.953 5.8674 7448.95 19 189.904 102.766 
-0.4479 194.834 3.0305 7427.72 14 219.145 178.388 
-0.4471 225.629 5.01356 7393.93 20 290.246 179.752 
-0.4463 259.026 4.89231 7391.88 17 307.248 107.51 
-0.4455 327.589 9.46289 7319.36 26 354.022 0 
-0.4447 397.056 7.49931 7464.52 17 200.731 167.479 
-0.4439 236.474 4.99181 7315.83 19 387.052 80.6333 
-0.4431 272.804 8.48653 7407.3 28 340.293 71.4199 
-0.4423 196.535 3.93036 7389.41 18 215.876 82.1134 
-0.4415 283.92 4.73161 7405.73 15 472.453 174.078 
-0.4407 184.345 3.07217 7389.36 15 238.105 0 
-0.4399 238.933 7.6983 7279.42 29 321.727 87.8093 
-0.4391 325.046 7.22265 7429.85 20 274.667 158.091 
-0.4383 275.405 6.42558 7395.86 21 464.139 77.8293 
-0.4375 220.422 4.65297 7382.74 19 583.992 81.1229 
-0.4367 333.107 7.40176 7447.41 20 277.07 79.2785 
-0.4359 264.113 6.45557 7482.74 22 336.205 213.998 
-0.4351 241.123 4.82205 7434.41 18 335.951 81.8019 
-0.4343 257.773 5.15503 7363.22 18 388.797 82.1134 
-0.4335 283.955 6.94054 7549.39 22 255.799 76.7031 
-0.4327 246.076 3.55413 7340.44 13 303.591 209.98 
-0.4319 328.307 8.38937 7549.56 23 417.561 76.0813 
-0.4311 234.831 4.69623 7454.28 18 327.754 0 
-0.4303 384.062 6.8272 7351.61 16 355.436 0 
-0.4295 222.457 5.19024 7452.17 21 197.072 0 
-0.4287 314.165 9.07511 7441.92 26 333.853 73.1891 
-0.4279 223.324 4.71422 7363.98 19 326.719 160.171 
-0.4271 174.979 3.88809 7389.61 20 294.677 79.2785 
-0.4263 232 5.41288 7377.69 21 365.157 197.634 
-0.4255 309.061 4.80722 7376.11 14 251.498 0 
-0.4247 242.498 4.0413 7384.18 15 241.17 0 
-0.4239 267.419 5.34793 7393.79 18 291.072 0 
-0.4231 254.314 5.08585 7399.08 18 350.177 81.4807 
-0.4223 294.905 6.88055 7330.34 21 275.887 78.2215 
-0.4215 273.179 10.0157 7445 33 388.196 206.106 
-0.4207 172.339 4.0209 7417.94 21 197.775 77.6162 
-0.4199 230.133 4.60228 7397.15 18 239.423 0 
-0.4191 187.906 5.01042 7479.18 24 375.464 74.9398 
-0.4183 198.286 3.96539 7384.04 18 329.564 105.023 
-0.4175 297.5 5.28844 7335.56 16 387.337 109.19 
-0.4167 230.659 4.10026 7347.4 16 174.709 0 
-0.4159 257.89 5.4439 7467.5 19 230.667 0 
-0.4151 289.448 6.75323 7373.95 21 327.932 78.3935 
-0.4143 275.271 6.11663 7366.68 20 290.533 101.378 
-0.4135 320.037 6.04464 7352.55 17 303.846 83.7397 
-0.4127 281.121 5.30961 7351.81 17 327.953 83.3767 
-0.4119 189.064 3.78097 7435.09 18 394.035 162.961 
-0.4111 226.674 4.02943 7387.25 16 324.299 0 
-0.4103 178.561 4.36446 7437.14 22 407.337 96.5489 
-0.4095 327.971 6.92325 7428.27 19 307.962 80.3645 
-0.4087 203.707 5.43172 7415.81 24 296.997 112.177 
-0.4079 242.027 5.91571 7407.98 22 366.32 76.7031 
-0.4071 244.739 5.4382 7314.75 20 335.33 78.8022 
-0.4063 225.732 4.76507 7328.54 19 397.854 207.046 
-0.4055 411.361 6.85544 7361.55 15 361.467 86.531 
-0.4047 178.723 3.77272 7472.78 19 266.317 80.3645 
-0.4039 255.964 6.25638 7434.14 22 304.952 114.017 
-0.4031 222.076 5.92152 7435.63 24 323.859 319.615 
-0.4023 309.483 5.84531 7408.3 17 267.397 0 
-0.4015 287.08 10.2064 7365.95 32 415.699 132.608 
-0.4007 280.267 4.98212 7268.09 16 393.776 84.6795 
-0.3999 229.005 5.08858 7450.97 20 380.348 0 
-0.3991 250.715 6.96372 7349.44 25 315.461 147.77 
-0.3983 185.395 4.53149 7402.88 22 262.808 76.7031 
-0.3975 298.758 7.63428 7324.85 23 308.72 94.9884 
-0.3967 279.757 3.41897 7446.74 11 321.578 0 
-0.3959 274.053 5.17613 7345.84 17 357.026 83.3767 
-0.3951 281.99 7.5191 7435.63 24 241.449 169.219 
-0.3943 139.018 2.78014 7382.05 18 249.72 82.4105 
-0.3935 238.406 4.50284 7373.63 17 260.843 83.3767 
-0.3927 275.282 7.34025 7361.14 24 258.951 109.19 
-0.3919 313.891 8.36974 7315.05 24 276.312 74.8155 
-0.3911 240.682 5.08064 7377.08 19 256.312 121.603 
-0.3903 222.764 4.20742 7395.38 17 227.728 83.3767 
-0.3895 145.509 2.90995 7356.07 18 291.7 81.4807 
-0.3887 404.083 8.08099 7402.42 18 369.156 163.604 
-0.3879 303.929 7.42877 7405.25 22 307.636 76.7031 
-0.3871 173.489 3.85499 7391.36 20 287.812 79.0455 
-0.3863 276.112 7.9759 7396.79 26 332.81 0 
-0.3855 209.398 4.88554 7497.29 21 284.929 100.647 
-0.3847 218.244 4.60698 7476.36 19 347.278 121.603 
-0.3839 307.94 4.44765 7216.4 13 495.811 0 
-0.3831 240.02 4.26667 7369.63 16 410.895 0 
-0.3823 280.076 6.53457 7299.62 21 407.383 98.8171 
-0.3815 300.957 5.68426 7332.85 17 381.932 192.23 
-0.3807 214.701 4.05513 7447.85 17 324.657 0 
-0.3799 282.046 5.32709 7494.01 17 286.268 0 
-0.3791 346.065 10.7656 7382.9 28 215.293 88.5933 
-0.3783 254.694 5.94236 7503.87 21 287.806 78.3935 
-0.3775 291.654 6.48066 7415.39 20 354.905 101.378 
-0.3767 283.858 8.83041 7361.98 28 390.313 160.987 
-0.3759 240.08 4.8012 7386.55 18 279.496 186.825 
-0.3751 308.728 6.51704 7442.13 19 214.987 80.0856 
-0.3743 233.431 6.743 7360.33 26 415.384 90.9094 
-0.3735 312.627 5.55735 7396.38 16 274.488 84.6795 
-0.3727 427.935 7.13166 7320.55 15 468.661 87.5423 
-0.3719 288.334 7.68826 7417.04 24 360.448 74.6794 
-0.3711 251.799 5.31532 7448.55 19 357.072 0 
-0.3703 243.016 5.3999 7402.08 20 391.433 100.707 
-0.3695 323.051 9.33181 7404.73 26 359.863 164.64 
-0.3687 239.569 5.85565 7417.23 22 355.679 76.5158 
-0.3679 319.761 7.46046 7431.45 21 379.914 175.848 
-0.3671 206.062 4.57878 7374.95 20 280.195 200.617 
-0.3663 214.738 6.44161 7342.17 27 373.417 162.144 
-0.3655 273.15 4.24864 7309.13 14 490.937 226.905 
-0.3647 251.331 5.02619 7407.46 18 368.359 0 
-0.3639 285.225 7.92225 7424.87 25 248.12 73.6366 
-0.3631 189.231 3.57407 7408.65 17 299.471 83.0049 
-0.3623 264.711 7.35247 7393.72 25 225.163 195.786 
-0.3615 293.619 6.19811 7354.37 19 374.047 102.766 
-0.3607 254.381 7.06554 7380.73 25 332.794 73.9933 
-0.3599 299.665 5.99279 7354.6 18 263.282 81.8019 
-0.3591 315.018 6.64982 7443.83 19 354.084 0 
-0.3583 242.706 5.93232 7423.44 22 259.854 99.2685 
-0.3575 233.421 5.44603 7316.82 21 400.955 78.2215 
-0.3567 349.714 7.38224 7341.29 19 320.552 160.171 
-0.3559 223.135 5.94976 7423.81 24 341.245 169.784 
-0.3551 316.242 8.4324 7455.59 24 433.687 189.688 
-0.3543 268.065 4.7652 7402.95 16 415.88 0 
-0.3535 253.175 6.46949 7396.66 23 348.053 75.4912 
-0.3527 294.554 6.21784 7327.48 19 302.487 102.766 
-0.3519 245.975 6.2855 7418.29 23 358.032 189.977 
-0.3511 269.44 5.089 7331.82 17 263.574 83.0049 
-0.3503 200.35 5.11962 7378.35 23 295.45 171.758 
-0.3495 202.213 4.49325 7415.5 20 367.831 157.604 
-0.3487 226.782 4.2833 7520.46 17 317.282 417.205 
-0.3479 227.16 3.28092 7307.44 13 398.583 92.3511 
-0.3471 270.321 5.10564 7432.99 17 425.842 83.3767 
-0.3463 239.454 6.65094 7439.3 25 326.471 147.987 
-0.3455 242.493 7.27418 7421.72 27 334.058 90.0436 
-0.3447 348.594 8.52048 7398.03 22 219.825 0 
-0.3439 320.196 6.40338 7467.56 18 372.711 185.674 
-0.3431 252.775 5.05507 7389.15 18 341.829 82.4105 
-0.3423 322.948 7.53483 7395.43 21 266.649 216.741 
-0.3415 220.9 7.60815 7358.79 31 309.887 168.978 
-0.3407 302.383 6.38311 7343.12 19 360.088 0 
-0.3399 268.005 6.25292 7411.7 21 430.598 78.0321 
-0.3391 344.605 11.4859 7321.93 30 340.349 139.871 
-0.3383 259.441 2.88244 7428.7 10 387.106 304.068 
-0.3375 250.98 4.74034 7337.02 17 275.072 0 
-0.3367 257.974 6.3055 7341.72 22 315.935 76.5158 
-0.3359 274.37 6.40143 7414.81 21 243.86 98.2313 
-0.3351 221.194 5.65227 7401.25 23 283.307 0 
-0.3343 363.417 8.07525 7377.22 20 344.41 0 
-0.3335 271.309 5.42573 7479.02 18 320.142 124.63 
-0.3327 365.947 8.13147 7390.66 20 332.315 78.8022 
-0.3319 357.067 7.93417 7427.73 20 461.544 0 
-0.3311 260.221 5.20398 7363.9 18 264.667 0 
-0.3303 150.04 2.83385 7403.77 17 340.306 83.0049 
-0.3295 250.498 4.73123 7482.43 17 273.273 83.7397 
-0.3287 370.158 5.75754 7393.72 14 267.556 0 
-0.3279 335.339 8.94162 7359.04 24 274.973 75.213 
-0.3271 216.423 5.04945 7380.68 21 358.359 77.8293 
-0.3263 303.825 4.05066 7434.26 12 399.097 0 
-0.3255 285.496 6.97822 7372.03 22 326.207 0 
-0.3247 228.291 3.5509 7404.74 14 337.949 0 
-0.3239 255.652 7.38488 7351.73 26 356.371 73.0127 
-0.3231 290.387 6.77513 7358.89 21 340.9 77.8293 
-0.3223 265.749 5.31453 7350.72 18 208.366 0 
-0.3215 237.186 6.32443 7379.78 24 249.161 168.646 
-0.3207 220.527 4.90019 7345.55 20 316.243 78.8022 
-0.3199 305.914 6.11776 7349.1 18 247.44 210.046 
-0.3191 289.363 8.35868 7382.63 26 349.411 90.9094 
-0.3183 259.816 5.1959 7407.84 18 307.288 162.961 
-0.3175 296.494 6.25879 7402.61 19 298.252 80.3645 
-0.3167 235.71 8.3801 7415.01 32 321.531 154.087 
-0.3159 344.435 9.18416 7394.59 24 303.085 74.8155 
-0.3151 298.778 8.9626 7395.67 27 405.193 162.144 
-0.3143 366.677 8.1477 7381.14 20 308.283 78.8022 
-0.3135 310.459 8.96808 7359.08 26 306.54 106.349 
-0.3127 231.775 4.12011 7488.75 16 327.909 0 
-0.3119 330.145 8.43633 7377.8 23 376.444 75.8112 
-0.3111 301.601 5.36136 7447.74 16 373.021 0 
-0.3103 213.111 4.73541 7401.58 20 418.772 79.2785 
-0.3095 273.324 6.98437 7326.1 23 307.376 340.076 
-0.3087 213.08 6.39188 7382.21 27 292.147 211.762 
-0.3079 307.994 7.18592 7466.28 21 269.952 177.448 
-0.3071 251.828 6.71485 7356.94 24 320.75 74.6794 
-0.3063 270.734 7.21897 7308.85 24 232.314 149.631 
-0.3055 220.775 4.66042 7373.85 19 324.222 182.117 
-0.3047 325.099 8.66859 7359.3 24 257.699 149.359 
-0.3039 301.818 6.03585 7355.63 18 347.373 81.4807 
-0.3031 273.589 7.59907 7383.62 25 365.462 166.852 
-0.3023 202.956 3.8333 7403.05 17 393.671 0 
-0.3015 317.088 5.98893 7413.47 17 326.335 166.753 
-0.3007 306.812 6.13572 7434.6 18 448.913 105.023 
-0.2999 263.473 7.90353 7347.44 27 331.923 72.1001 
-0.2991 232.124 4.9 7485.64 19 386.526 224.369 
-0.2983 283.973 7.25648 7447.42 23 345.747 186.589 
-0.2975 174.335 3.4864 7396.16 18 359.765 105.023 
-0.2967 272.86 7.57881 7356.83 25 320.085 314.575 
-0.2959 257.028 4.56901 7345.82 16 269.663 0 
-0.2951 276.065 5.52083 7423.01 18 240.351 0 
-0.2943 335.083 6.32882 7417.36 17 278.101 0 
-0.2935 297.102 7.59196 7438.29 23 412.783 171.12 
-0.2927 338.037 6.76017 7390.63 18 296.746 126.038 
-0.2919 258.501 4.308 7392.82 15 210.612 198.637 
-0.2911 255.914 5.97082 7464.1 21 301.5 78.2215 
-0.2903 306.073 7.82122 7413.34 23 233.085 76.0813 
-0.2895 322.846 6.45637 7330.84 18 390.985 0 
-0.2887 200.385 7.1242 7364.34 32 412.171 345.052 
-0.2879 260.649 4.92295 7486.41 17 373.947 190.887 
-0.2871 173.2 4.041 7276.71 21 362.236 119.437 
-0.2863 241.604 6.17381 7341.44 23 379.719 94.9884 
-0.2855 197.713 5.71123 7435.93 26 250.283 72.7933 
-0.2847 221.297 5.65489 7338.38 23 476.518 171.758 
-0.2839 350.064 10.1121 7488.98 26 299.892 0 
-0.2831 292.873 6.83313 7367.25 21 284.596 130.916 
-0.2823 289.975 5.47684 7428.04 17 266.304 106.568 
-0.2815 250.003 6.11068 7494.22 22 377.373 0 
-0.2807 183.895 4.69914 7430.29 23 316.014 151.622 
-0.2799 361.466 8.0319 7379.14 20 487.673 79.4976 
-0.2791 187.274 4.36936 7416.87 21 370.563 155.232 
-0.2783 318.949 8.85896 7343.71 25 349.937 147.531 
-0.2775 224.307 3.98735 7389.73 16 410.368 84.6795 
-0.2767 302.084 8.05491 7483.01 24 325.748 93.967 
-0.2759 316.082 10.8864 7397.14 31 315.766 69.3899 
-0.2751 314.207 4.88726 7426.95 14 202.705 177.187 
-0.2743 285.429 6.02522 7385.9 19 348.051 0 
-0.2735 253.698 5.3554 7435.24 19 407.205 160.171 
-0.2727 232.986 4.40048 7361.77 17 416.173 166.753 
-0.2719 252.098 6.16189 7300.49 22 423.185 0 
-0.2711 305.864 9.17516 7458.14 27 343.132 207.98 
-0.2703 296.184 5.92319 7418.4 18 228.825 0 
-0.2695 230.963 4.61886 7388.9 18 480.265 81.4807 
-0.2687 262.954 4.38221 7328.61 15 390.984 175.085 
-0.2679 292.795 7.8072 7457.62 24 237.148 0 
-0.2671 327.529 8.00561 7455.32 22 292.857 76.5158 
-0.2663 203.949 2.7191 7542.8 12 316.725 95.2879 
-0.2655 199.025 5.08578 7388.19 23 373.09 171.758 
-0.2647 213.77 3.56254 7279.67 15 170.288 113.351 
-0.2639 259.361 6.05124 7340.79 21 339.886 99.4156 
-0.2631 233.809 5.97463 7399.69 23 290.055 151.908 
-0.2623 272.586 7.26836 7459.88 24 240.721 74.8155 
-0.2615 185.49 3.7095 7425.22 18 281.049 81.4807 
-0.2607 310.017 6.88868 7432.37 20 279.858 0 
-0.2599 242.108 5.64871 7375.38 21 289.957 0 
-0.2591 342.668 9.89847 7412.13 26 340.942 73.0127 
-0.2583 186.108 3.10155 7500.12 15 278.72 86.531 
-0.2575 229.915 4.34247 7439.96 17 256.296 0 
-0.2567 330.548 8.44664 7341.91 23 492.721 75.6561 
-0.2559 249.496 6.37547 7360.71 23 372.173 75.4912 
-0.2551 235.346 4.70653 7468.67 18 235.626 0 
-0.2543 201.193 3.57647 7382.05 16 323.067 193.869 
-0.2535 273.355 5.77035 7500.6 19 370.912 80.3645 
-0.2527 245.891 4.37103 7336.28 16 273.807 85.1125 
-0.2519 293.786 4.89603 7359.67 15 293.436 0 
-0.2511 273.634 4.8642 7465.97 16 249.891 193.869 
-0.2503 345.798 7.68377 7448.85 20 336.11 102.065 
-0.4993 269.345 5.98494 7513.34 20 285.565 79.4976 
-0.4985 301.832 5.36546 7454.78 16 269.595 85.1125 
-0.4977 343.033 8.38455 7458.51 22 379.322 190.72 
-0.4969 241.133 6.69759 7396.91 25 290.122 73.885 
-0.4961 268.728 6.86693 7437.1 23 273.662 75.6561 
-0.4953 378.309 8.82647 7412.93 21 369.749 77.8293 
-0.4945 275.155 5.19693 7474.55 17 376.993 0 
-0.4937 275.198 5.80925 7362.62 19 303.45 346.912 
-0.4929 297.08 6.27116 7416.38 19 272.744 161.267 
-0.4921 230.966 6.15859 7354.94 24 199.661 74.8155 
-0.4913 210.66 3.74475 7442.81 16 178.509 0 
-0.4905 304.617 8.79931 7379.19 26 424.848 91.267 
-0.4897 263.195 5.26347 7359.17 18 244.945 104.194 
-0.4889 226.891 6.04991 7501.16 24 284.676 74.9398 
-0.4881 327.02 7.26651 7449.77 20 190.456 0 
-0.4873 238.445 4.76851 7350.54 18 220.285 81.4807 
-0.4865 312.86 6.95186 7285.21 20 307.554 100.707 
-0.4857 297.474 5.61848 7376.5 17 280.295 0 
-0.4849 265.76 6.49583 7475.15 22 350.87 0 
-0.4841 187.775 3.33795 7519.2 16 244.101 109.19 
-0.4833 285.305 8.87543 7368.46 28 202.708 142.677 
-0.4825 387.919 7.32674 7376.53 17 377.217 0 
-0.4817 230.004 5.87739 7352.89 23 259.897 75.6561 
-0.4809 287.06 6.69751 7436.33 21 316.431 0 
-0.4801 361.606 7.23152 7381.02 18 245.218 105.023 
-0.4793 265.736 6.79048 7345.07 23 280.539 95.4641 
-0.4785 283.736 4.41331 7547.71 14 286.783 89.1941 
-0.4777 437.272 5.34399 7371.88 11 263.702 0 
-0.4769 201.015 4.91329 7442.47 22 241.9 174.492 
-0.4761 435.461 13.0627 7340.33 27 309.481 162.565 
-0.4753 425.534 8.0372 7482.8 17 383.581 0 
-0.4745 243.739 5.95757 7336.44 22 336.944 174.492 
-0.4737 291.672 5.50891 7434.84 17 521.876 0 
-0.4729 271.893 5.73949 7326.69 19 406.724 80.0856 
-0.4721 256.427 5.69791 7389.58 20 333.095 78.8022 
-0.4713 284.528 5.69008 7425.89 18 398.631 162.961 
-0.4705 221.708 4.4338 7454.55 18 323.168 0 
-0.4697 344.659 7.65845 7348.89 20 272.524 101.378 
-0.4689 325.537 9.04193 7472.24 25 369.209 92.9674 
-0.4681 290.238 8.70642 7355.14 27 247.517 176.844 
-0.4673 271.075 3.31287 7339.76 11 324.538 0 
-0.4665 222.911 3.46721 7393.75 14 255.969 0 
-0.4657 318.055 7.06731 7447.05 20 262.262 100.707 
-0.4649 241.251 4.82462 7380.48 18 231.614 82.1134 
-0.4641 252.411 7.29126 7278.27 26 356.513 73.1072 
-0.4633 343.347 8.39224 7395.64 22 300.186 97.0757 
-0.4625 214.673 3.81609 7352.48 16 301.358 170.225 
-0.4617 219.821 6.10564 7407.21 25 326.775 73.6366 
-0.4609 323.6 6.83099 7421.12 19 429.584 0 
-0.4601 282.728 6.59643 7383.08 21 276.176 208.533 
-0.4593 301.074 7.35897 7328.11 22 278.876 306.014 
-0.4585 270.851 3.61104 7392.12 12 464.515 94.4034 
-0.4577 312.382 5.90005 7396.95 17 372.276 235.488 
-0.4569 234.953 5.22073 7434.83 20 247.421 0 
-0.4561 300.684 5.67911 7256.24 17 420.429 83.7397 
-0.4553 316.613 8.44232 7456.08 24 422.165 74.5338 
-0.4545 297.142 11.2244 7428.3 34 295.315 163.346 
-0.4537 197.528 2.19457 7531.81 10 469.426 101.378 
-0.4529 179.895 3.79748 7444.75 19 375.493 80.6333 
-0.4521 220.956 5.15521 7428.35 21 322.863 0 
-0.4513 223.8 5.71886 7363.9 23 301.893 151.312 
-0.4505 306.955 6.13859 7317.92 18 441.349 81.8019 
-0.4497 338.74 6.77423 7537.44 18 450.821 0 
-0.4489 237.616 6.0719 7400.53 23 427.719 151.622 
-0.4481 187.081 3.53347 7409.9 17 446.722 83.0049 
-0.4473 304.576 8.12134 7441.35 24 360.028 74.6794 
-0.4465 169.618 2.82674 7351.02 15 324.336 0 
-0.4457 275.329 5.81202 7333.53 19 220.942 80.6333 
-0.4449 337.272 5.62074 7461.47 15 343.779 87.039 
-0.4441 267.358 7.72303 7391.9 26 346.002 91.267 
-0.4433 285.292 6.02233 7412.38 19 287.586 233.033 
-0.4425 298.38 5.6356 7398.29 17 318.433 106.568 
-0.4417 283.94 6.62472 7365.03 21 336.769 78.0321 
-0.4409 287.919 8.63685 7381.21 27 206.814 130.24 
-0.4401 256.416 5.12789 7383.23 18 403.637 0 
-0.4393 273.613 3.03989 7505.34 10 451.896 0 
-0.4385 296.756 7.58313 7399.76 23 417.837 75.8112 
-0.4377 219.716 4.63806 7409.74 19 248.055 0 
-0.4369 262.875 7.00943 7407.64 24 304.47 74.8155 
-0.4361 244.621 4.62023 7281.42 17 269.61 83.0049 
-0.4353 232.19 5.4173 7450.13 21 254.373 78.0321 
-0.4345 262.266 7.57595 7398.5 26 269.303 72.9075 
-0.4337 311.981 6.58571 7345.42 19 407.822 0 
-0.4329 299.591 5.32561 7289.54 16 239.517 0 
-0.4321 327.531 9.09733 7387.53 25 372.91 166.852 
-0.4313 269.125 4.78405 7411.21 16 215.898 0 
-0.4305 228.466 5.07661 7485.37 20 325.987 79.4976 
-0.4297 247.403 6.04714 7371.69 22 320.188 194.151 
-0.4289 185.258 3.08738 7297.47 15 244.092 200.39 
-0.4281 258.452 5.16862 7399.33 18 274.492 0 
-0.4273 297.021 6.92992 7428.83 21 257.769 156.787 
-0.4265 221.957 4.19217 7450.06 17 370.905 190.887 
-0.4257 177.017 4.32671 7444.4 22 292.724 189.669 
-0.4249 281.984 7.83224 7413.07 25 355.147 73.6366 
-0.4241 337.887 5.63098 7431.03 15 215.915 174.078 
-0.4233 271.678 6.33863 7447.33 21 341.362 0 
-0.4225 321.65 5.71774 7375.86 16 467.433 129.977 
-0.4217 268.87 5.97439 7295.8 20 355.991 79.4976 
-0.4209 228.819 6.10133 7373.67 24 252.299 74.5338 
-0.4201 237.237 7.64365 7437.97 29 385.364 283.33 
-0.4193 249.659 6.10226 7364.47 22 404.049 76.5158 
-0.4185 281.745 8.45163 7382.67 27 337.502 72.1927 
-0.4177 146.44 1.62698 7440.77 10 248.844 100.052 
-0.4169 293.173 6.51442 7290.79 20 357.126 79.0455 
-0.4161 237.917 4.49362 7463.1 17 221.032 83.3767 
-0.4153 240.271 6.67365 7423.51 25 254.342 73.6366 
-0.4145 309.983 9.29873 7410.75 27 280.995 397.741 
-0.4137 269.579 6.28966 7418.85 21 390.971 78.2215 
-0.4129 286.877 6.05578 7354.97 19 334.683 80.3645 
-0.4121 259.788 6.9271 7500.82 24 317.184 109.19 
-0.4113 274.882 3.66479 7330.72 12 248.167 216.828 
-0.4105 304.326 7.77658 7423.16 23 347.097 75.4912 
-0.4097 233.227 4.66415 7457.92 18 383.323 208.388 
-0.4089 251.143 4.74342 7386.28 17 341.541 83.7397 
-0.4081 305.764 7.13389 7317.11 21 218.415 155.659 
-0.4073 233.828 6.23489 7429.71 24 295.414 74.6794 
-0.4065 328.107 6.19706 7392.1 17 297.496 83.3767 
-0.4057 390.755 5.64377 7429.78 13 246.855 0 
-0.4049 340.504 4.53967 7519.14 12 158.364 93.536 
-0.4041 282.927 4.40072 7479.14 14 350.959 267.525 
-0.4033 278.175 8.65362 7413.62 28 298.136 88.8933 
-0.4025 285.321 5.70594 7476.1 18 366.353 164.227 
-0.4017 199.43 3.54512 7487.32 16 360.58 169.359 
-0.4009 241.512 6.97642 7383.32 26 359.327 133.696 
-0.4001 251.827 4.47655 7382.74 16 303.507 169.359 
-0.3993 265.793 7.38251 7390.22 25 369.653 73.9933 
-0.3985 205.012 4.55543 7475.08 20 285.807 79.0455 
-0.3977 251.568 3.91296 7291.59 14 454.513 0 
-0.3969 195.38 5.42677 7417.31 25 368.998 147.273 
-0.3961 324.357 6.12624 7427.4 17 313.928 83.7397 
-0.3953 194.99 4.33274 7341.49 20 404.183 196.588 
-0.3945 264.642 4.99837 7415 17 343.798 131.279 
-0.3937 214.716 4.77106 7412.64 20 291.308 78.8022 
-0.3929 310.325 10.3433 7419.84 30 398.217 86.7852 
-0.3921 296.299 5.5963 7286.4 17 233.582 83.3767 
-0.3913 341.279 7.96251 7415.56 21 220.519 155.232 
-0.3905 274.194 4.26488 7402.58 14 212.733 0 
-0.3897 323.447 6.46841 7387.71 18 393.175 0 
-0.3889 291.458 8.74302 7421.07 27 321.167 178.156 
-0.3881 262.764 5.54679 7412.94 19 391.996 183.131 
-0.3873 155.981 2.77277 7517.17 16 264.503 131.704 
-0.3865 238.473 5.82886 7419.65 22 238.333 76.8802 
-0.3857 258.644 5.74717 7465.49 20 251.43 102.767 
-0.3849 246.267 7.3874 7358.38 27 250.001 90.0436 
-0.3841 278.639 7.12019 7487.58 23 363.693 0 
-0.3833 281.739 5.94733 7383.2 19 170.264 0 
-0.3825 225.179 4.75338 7373.5 19 345.345 183.131 
-0.3817 319.568 5.32569 7521.67 15 371.196 87.039 
-0.3809 266.917 8.59994 7406.25 29 531.534 88.0852 
-0.3801 268.281 8.34583 7422.6 28 373.921 0 
-0.3793 267.246 8.01672 7375.25 27 255.679 90.0436 
-0.3785 255.211 3.68607 7463.78 13 325.103 119.07 
-0.3777 252.907 6.18166 7403.19 22 302.273 153.76 
-0.3769 312.347 6.94046 7380.03 20 370.524 216.208 
-0.3761 291.738 3.56539 7504.65 11 290.865 0 
-0.3753 210.785 2.81023 7485.07 12 325.799 0 
-0.3745 380.191 9.71518 7498.5 23 235.665 0 
-0.3737 438.419 7.30637 7376.28 15 281.57 246.005 
-0.3729 297.69 7.27626 7390.93 22 292.738 76.7031 
-0.3721 410.541 6.84178 7453.39 15 211.992 114.66 
-0.3713 323.092 9.69195 7437.07 27 270.24 71.9989 
-0.3705 291.015 7.43644 7397.93 23 267.538 0 
-0.3697 308.196 9.58753 7339.49 28 260.586 143.105 
-0.3689 172.476 3.25761 7394.13 17 363.188 83.0049 
-0.3681 214.17 6.90044 7446.83 29 259.8 70.8044 
-0.3673 308.926 8.92377 7397.35 26 339.551 146.025 
-0.3665 207.516 3.22776 7426.35 14 260.411 90.3862 
-0.3657 271.438 5.12674 7436.88 17 356.393 83.3767 
-0.3649 235.905 3.40723 7411.99 13 350.415 0 
-0.3641 206.698 4.36327 7408.23 19 310.807 80.0856 
-0.3633 234.643 2.86762 7423.59 11 372.975 97.612 
-0.3625 213.532 3.32133 7342.59 14 193.951 178.388 
-0.3617 302.666 8.07042 7430.32 24 234.95 149.359 
-0.3609 319.336 7.80533 7394 22 279.657 97.612 
-0.3601 291.435 8.74232 7379.63 27 383.03 72.1927 
-0.3593 236.46 3.41524 7509.19 13 424.661 0 
-0.3585 191.291 5.52573 7416.48 26 398.85 146.378 
-0.3577 243.265 4.05407 7323.27 15 303.546 87.5423 
-0.3569 224.642 4.24288 7300.55 17 303.631 0 
-0.3561 210.372 2.80472 7342.8 12 340.902 0 
-0.3553 177.153 3.14912 7357.05 16 415.988 85.9507 
-0.3545 309.608 7.56756 7349.38 22 336.629 0 
-0.3537 293.625 8.48179 7453.69 26 355.173 72.7933 
-0.3529 310.183 5.85852 7481.99 17 459.964 107.51 
-0.3521 236.732 4.47124 7316.35 17 419.943 0 
-0.3513 404.784 7.64529 7297.64 17 256.289 106.568 
-0.3505 286.611 6.36861 7340.96 20 270.253 181.562 
-0.3497 285.186 7.60433 7428.46 24 333.772 0 
-0.3489 266.527 5.33009 7363.71 18 321.032 162.961 
-0.3481 274.056 6.6986 7403.41 22 475.152 153.032 
-0.3473 184.716 4.30969 7423.87 21 317.282 98.8171 
-0.3465 284.025 12.3067 7346.67 39 337.417 181.885 
-0.3457 301.79 8.38236 7438.58 25 220.636 0 
-0.3449 287.177 4.78588 7517.35 15 275.027 88.0338 
-0.3441 296.428 8.8921 7401.64 27 274.731 90.0436 
-0.3433 209.783 6.52605 7427.18 28 259.824 160.614 
-0.3425 253.606 5.63522 7405.81 20 247.692 179.752 
-0.3417 205.172 3.19129 7395.89 14 295.716 177.187 
-0.3409 212.944 4.73169 7332.6 20 313.661 197.895 
-0.3401 214.976 5.73222 7369.01 24 255.066 149.359 
-0.3393 307.735 7.52179 7436.07 22 353.443 97.0757 
-0.3385 345.457 7.29238 7416.59 19 268.59 102.032 
-0.3377 280.268 5.91627 7363.7 19 302.975 266.024 
-0.3369 251.375 5.02709 7428.76 18 408.375 81.4807 
-0.3361 163.594 3.08985 7447.78 17 302.753 83.7397 
-0.3353 239.393 4.25552 7441.19 16 388.319 0 
-0.3345 294.452 7.8514 7423.42 24 247.322 94.4034 
-0.3337 222.501 3.46083 7424.04 14 241.25 0 
-0.3329 270.589 7.81635 7404.06 26 328.719 106.349 
-0.3321 288.07 4.48072 7438.07 14 307.433 177.187 
-0.3313 228.043 4.30712 7380.29 17 285.066 107.51 
-0.3305 265.201 5.59822 7450.15 19 261.675 241.848 
-0.3297 265.683 6.78911 7437.27 23 315.628 0 
-0.3289 189.912 5.27489 7272.56 25 280.813 73.885 
-0.3281 225.348 3.00439 7315.34 12 261.817 93.536 
-0.3273 259.353 6.91549 7384.23 24 360.821 149.068 
-0.3265 291.474 6.47666 7440.7 20 368.075 78.8022 
-0.3257 219.969 4.88779 7389.82 20 270.886 0 
-0.3249 256.703 7.13005 7345.95 25 311.697 165.816 
-0.3241 313.102 10.088 7397.9 29 283.432 172.989 
-0.3233 242.551 3.23375 7415.04 12 421.922 94.4034 
-0.3225 331.828 6.26734 7325.55 17 436.405 83.3767 
-0.3217 232.85 5.43271 7430.66 21 304.365 78.0321 
-0.3209 168.663 3.56038 7451.39 19 284.793 80.3645 
-0.3201 274.881 5.49716 7409.77 18 308.448 104.194 
-0.3193 237.367 5.53811 7328.54 21 203.665 77.6162 
-0.3185 235.17 5.48683 7376.84 21 267.833 0 
-0.3177 174.577 2.71541 7501.26 14 259.264 0 
-0.3169 333.167 7.4031 7361.68 20 237.622 100.052 
-0.3161 274.563 5.49081 7391.42 18 263.452 0 
-0.3153 279.739 4.35113 7452.79 14 374.54 0 
-0.3145 390.304 5.63725 7479.42 13 241.272 0 
-0.3137 263.752 5.2746 7421.35 18 200.165 81.8019 
-0.3129 301.704 4.69278 7367.59 14 285.129 0 
-0.3121 279.374 6.20778 7415.48 20 286.93 79.2785 
-0.3113 262.52 7.58329 7412.37 26 337.49 146.025 
-0.3105 361.799 8.84324 7384.43 22 429.445 76.5158 
-0.3097 179.769 3.39535 7294.99 17 300.353 106.568 
-0.3089 234.303 3.64441 7299.99 14 432.095 0 
-0.3081 291.505 7.12509 7425.6 22 420.029 114.913 
-0.3073 237.242 2.89938 7340.08 11 210.793 0 
-0.3065 315.841 4.91267 7360.19 14 383.008 178.388 
-0.3057 231.39 4.88449 7505.45 19 293.189 161.267 
-0.3049 271.181 4.82059 7425.46 16 286.597 171.077 
-0.3041 288.704 7.37737 7370.25 23 418.031 96.436 
-0.3033 245.213 6.26604 7406.61 23 319.042 0 
-0.3025 254.681 5.37616 7338.8 19 331.54 160.171 
-0.3017 379.487 6.32426 7350.4 15 204.266 174.078 
-0.3009 177.766 3.35753 7357.58 17 209.47 83.0049 
-0.3001 277.906 4.94013 7464.61 16 295.137 170.225 
-0.2993 202.163 5.16595 7378.72 23 374.99 171.12 
-0.2985 258.293 4.87846 7394.77 17 277.401 84.4158 
-0.2977 258.544 7.18118 7414.79 25 360.416 166.337 
-0.2969 201.325 4.02617 7444.39 18 586.581 185.674 
-0.2961 410.797 6.84605 7362.2 15 328.209 0 
-0.2953 247.664 6.32865 7348.31 23 331.69 95.4641 
-0.2945 184.133 4.90981 7406.34 24 343.606 298.669 
-0.2937 291.302 10.6802 7295.03 33 379.859 68.126 
-0.2929 337.211 5.99436 7394.3 16 259.994 0 
-0.2921 175.967 3.51904 7348.36 18 273.368 0 
-0.2913 400.989 7.57361 7366 17 350.151 190.887 
-0.2905 210.945 3.04673 7462.51 13 231.158 91.6271 
-0.2897 219.921 4.88673 7368.84 20 380.342 0 
-0.2889 299.219 7.9785 7356.33 24 370.501 0 
-0.2881 306.857 4.77293 7436.51 14 256.162 0 
-0.2873 294.708 5.23882 7443.87 16 185.086 85.1125 
-0.2865 269.526 5.39006 7413.55 18 296.915 81.4807 
-0.2857 309.711 4.12913 7432.04 12 293.089 0 
-0.2849 253.744 6.20211 7425.75 22 254.962 76.7031 
-0.2841 256.234 9.67915 7371.7 34 383.882 151.54 
-0.2833 271.591 6.33661 7350.75 21 387.421 0 
-0.2825 160.288 4.45207 7347.62 25 387.092 0 
-0.2817 323.223 4.30928 7406.9 12 227.426 0 
-0.2809 397.263 8.38596 7376.27 19 258.198 102.032 
-0.2801 176.184 2.34893 7462.95 12 584.273 93.536 
-0.2793 214.514 4.76659 7514.4 20 302.275 0 
-0.2785 276.769 7.68738 7414.09 25 325.889 73.6366 
-0.2777 209.354 4.65193 7360.12 20 465.485 197.895 
-0.2769 328.956 7.30952 7420.82 20 375.046 0 
-0.2761 308.319 8.22115 7413.77 24 223.303 0 
-0.2753 261.257 5.80522 7523.42 20 359.776 196.588 
-0.2745 278.659 6.1919 7445.98 20 409.695 0 
-0.2737 322.459 6.09039 7337.91 17 253.636 83.0049 