ITEM: TIMESTEP
7000
ITEM: NUMBER OF CELLS
5000
ITEM: BOX BOUNDS or pp pp
-0.5 0.5
0 0.0002
-0.5 0.5
ITEM: CELLS xc c_1[1] c_1[2] c_2[1] c_2[2] c_2[3] c_3[1] 
-0.4999 281.122 6.24663 7283.03 20 245.075 158.557 
-0.4991 405.118 9.45196 7346.72 21 393.014 98.8171 
-0.4983 285.047 4.75039 7340.57 15 285.495 112.106 
-0.4975 272.75 6.0606 7313.68 20 321.605 217.838 
-0.4967 334.072 7.4232 7430.39 20 235.431 0 
-0.4959 274.02 5.47994 7290.81 18 301.894 0 
-0.4951 256.764 5.70539 7446.87 20 430.294 79.2785 
-0.4943 278.835 4.64686 7316.79 15 257.862 198.637 
-0.4935 296.653 8.23968 7358.31 25 237.544 73.7654 
-0.4927 301.319 6.36066 7314.42 19 387.187 120.413 
-0.4919 355.255 7.4992 7428.23 19 420.305 160.729 
-0.4911 274.179 7.61545 7372.44 25 257.312 147.531 
-0.4903 213.29 6.87212 7391.8 29 267.929 88.3605 
-0.4895 224.519 3.99111 7469.26 16 225.347 84.6795 
-0.4887 265.88 3.84016 7518.51 13 497.121 0 
-0.4879 343.38 11.445 7354.01 30 263.635 70.0973 
-0.4871 267.802 5.65313 7405.54 19 284.067 0 
-0.4863 281.013 8.74188 7390.87 28 189.734 159.842 
-0.4855 342.521 6.84985 7376.29 18 432.081 222.214 
-0.4847 308.064 6.16077 7424.23 18 348.948 81.4807 
-0.4839 303.07 6.39761 7418.28 19 341.509 105.1 
-0.4831 285.869 5.39929 7436.16 17 412.707 146.774 
-0.4823 237.441 4.74842 7377.86 18 242.639 81.8019 
-0.4815 273.718 5.77802 7314.02 19 420.063 161.215 
-0.4807 321.934 5.00744 7391.84 14 267.968 118.36 
-0.4799 249.562 6.65444 7378.42 24 278.755 93.967 
-0.4791 337.074 4.49395 7429.37 12 316.584 0 
-0.4783 226.966 4.03461 7352.55 16 424.644 84.6795 
-0.4775 233.945 6.49793 7426.53 25 379.569 73.9933 
-0.4767 195.092 3.03451 7411.46 14 194.062 233.647 
-0.4759 415.975 9.70528 7354.84 21 385.773 77.6162 
-0.4751 343.82 7.25782 7349.26 19 317.48 102.032 
-0.4743 201.08 2.90424 7355.31 13 209.774 0 
-0.4735 265.825 7.08806 7330.27 24 287.86 74.5338 
-0.4727 251.401 5.30691 7444.59 19 315.744 80.6333 
-0.4719 259.029 6.90686 7375.09 24 342.918 74.5338 
-0.4711 188.246 2.71888 7474.56 13 228.388 91.6271 
-0.4703 237.258 6.32636 7359.53 24 289.754 168.646 
-0.4695 324.593 9.01573 7386.41 25 439.436 73.7654 
-0.4687 336.712 7.10778 7385.19 19 295.214 184.156 
-0.4679 373.258 5.80575 7392.92 14 351.249 0 
-0.4671 254.354 5.08666 7325.33 18 438.959 81.4807 
-0.4663 360.727 8.01548 7378.37 20 227.424 79.0455 
-0.4655 351.799 7.03539 7471.36 18 323.731 164.227 
-0.4647 293.718 7.17918 7372.87 22 259.515 211.093 
-0.4639 226.27 6.78755 7403.67 27 368.67 90.0436 
-0.4631 251.492 4.75001 7442.4 17 259.54 0 
-0.4623 375.014 7.49965 7374.09 18 298.899 162.961 
-0.4615 242.335 5.38476 7474.84 20 220.112 78.8022 
-0.4607 192.831 3.42783 7485.11 16 407.842 171.077 
-0.4599 282.367 6.58801 7379.72 21 334.621 98.2313 
-0.4591 224.735 4.74401 7421.49 19 363.942 160.171 
-0.4583 193.411 4.29766 7360 20 325.662 179.752 
-0.4575 229.161 5.09204 7394.96 20 300.508 158.04 
-0.4567 222.09 3.70119 7270.69 15 168.914 0 
-0.4559 255.949 4.54983 7444.88 16 267.788 196.935 
-0.4551 257.023 7.13893 7464.74 25 275.53 165.816 
-0.4543 226.062 5.52549 7361.97 22 372.247 153.406 
-0.4535 266.151 6.20968 7372.76 21 215.421 177.448 
-0.4527 235.973 6.02992 7341.06 23 379.861 94.9884 
-0.4519 263.885 4.39771 7451.45 15 516.536 87.039 
-0.4511 331.638 7.73757 7410.13 21 320.388 77.6162 
-0.4503 375.68 10.0173 7332.6 24 242.911 0 
-0.4495 153.723 2.56183 7485.79 15 230.571 261.061 
-0.4487 207.002 4.59966 7348.04 20 443.88 157.604 
-0.4479 340.191 7.93714 7442.98 21 315.474 100.026 
-0.4471 242.937 6.7477 7389.88 25 287.963 184.359 
-0.4463 268.894 6.27368 7410.87 21 397.55 155.659 
-0.4455 264.742 6.76507 7356.76 23 507.256 75.6561 
-0.4447 250.881 5.29593 7452.1 19 308.933 0 
-0.4439 237.215 5.53456 7355.32 21 300.124 77.8293 
-0.4431 214.115 4.51983 7305.17 19 464.915 0 
-0.4423 283.776 8.51257 7408.36 27 168.093 72.1927 
-0.4415 236.749 4.99761 7334.88 19 268.207 122.85 
-0.4407 249.784 4.71775 7357.58 17 322.732 83.3767 
-0.4399 218.958 5.1086 7401.21 21 196.402 175.848 
-0.4391 412.405 7.33103 7396.72 16 351.473 214.656 
-0.4383 311.621 8.30921 7382.68 24 283.426 149.068 
-0.4375 214.325 4.52425 7425.99 19 299.14 0 
-0.4367 248.044 4.4093 7396.17 16 340.925 0 
-0.4359 294.268 5.23099 7285.54 16 233.374 169.359 
-0.4351 226.085 3.76778 7454.11 15 281.22 0 
-0.4343 245.444 6.81732 7384.08 25 298.983 181.049 
-0.4335 204.747 3.63964 7413.5 16 321.18 84.6795 
-0.4327 242.15 6.45679 7463.9 24 280.935 93.967 
-0.4319 268.273 5.96113 7454.03 20 224.646 118.849 
-0.4311 168.433 2.61985 7410.69 14 222.229 0 
-0.4303 383.861 13.2208 7373.78 31 303.801 155.393 
-0.4295 333.279 9.25697 7438.96 25 284.03 0 
-0.4287 305.543 5.43143 7352.26 16 400.067 85.1125 
-0.4279 194.921 3.24841 7409.17 15 329.248 87.039 
-0.4271 226.577 5.53808 7431.61 22 237.345 175.202 
-0.4263 226.013 5.77541 7343.36 23 236.227 0 
-0.4255 310.084 4.47862 7527.23 13 299.018 165.811 
-0.4247 264.521 6.75941 7352.71 23 316.925 150.982 
-0.4239 232.807 5.94902 7353.47 23 349.347 94.9884 
-0.4231 210.891 3.28026 7380 14 387.597 203.968 
-0.4223 263.826 5.8623 7325.61 20 172.572 217.838 
-0.4215 283.834 8.5143 7404.65 27 293.802 90.0436 
-0.4207 292.831 5.85612 7451.67 18 278.206 81.8019 
-0.4199 385.479 8.13722 7385.8 19 463.53 183.131 
-0.4191 206.58 4.13125 7464.84 18 355.916 105.023 
-0.4183 251.756 4.19559 7345.64 15 244.846 86.531 
-0.4175 218.356 4.36675 7440.61 18 287.224 81.4807 
-0.4167 244.021 4.6089 7397.13 17 425.125 127.977 
-0.4159 226.68 5.5406 7442.37 22 277.135 76.7031 
-0.4151 256.967 7.99385 7357.08 28 443.979 192.131 
-0.4143 234.918 5.21997 7349.24 20 248.94 150.961 
-0.4135 378.208 6.72314 7351.97 16 292.661 214.656 
-0.4127 257.846 5.72943 7401.38 20 255.844 78.8022 
-0.4119 357.791 6.75771 7483.12 17 257.605 83.0049 
-0.4111 292.102 7.13967 7395.18 22 266.887 76.7031 
-0.4103 149.393 2.65566 7367.45 16 350.268 84.6795 
-0.4095 317.713 7.41269 7470.15 21 355.49 0 
-0.4087 253.725 6.76543 7388.88 24 336.47 93.967 
-0.4079 186.708 5.60077 7385.76 27 304.101 0 
-0.4071 273.311 5.46577 7451.43 18 311.017 187.995 
-0.4063 191.011 4.45656 7376.83 21 277.484 130.916 
-0.4055 286.963 5.41996 7397.48 17 401.566 83.7397 
-0.4047 339.49 7.54359 7412.07 20 384.783 0 
-0.4039 320.872 7.1299 7385.97 20 420.449 217.838 
-0.4031 270.082 5.10112 7424.85 17 355.698 106.568 
-0.4023 347.309 7.71734 7448.16 20 300.829 100.052 
-0.4015 287.554 5.43111 7515.67 17 216.817 169.424 
-0.4007 209.518 5.58669 7328.34 24 310.96 74.6794 
-0.3999 240.591 5.88062 7369.47 22 355.684 173.065 
-0.3991 257.684 5.15325 7390.95 18 371.927 162.961 
-0.3983 365.675 9.75053 7450.81 24 380.542 74.6794 
-0.3975 215.226 4.06505 7355.28 17 321.64 0 
-0.3967 328.502 6.20452 7423.92 17 386.787 108.49 
-0.3959 231.941 3.86536 7383.06 15 232.416 0 
-0.3951 194.513 3.45772 7403.63 16 358.649 169.359 
-0.3943 400.27 8.89415 7451.33 20 304.388 79.2785 
-0.3935 186.888 3.32218 7334.58 16 311.879 220.537 
-0.3927 324.274 9.00686 7403.01 25 288.118 73.885 
-0.3919 346.167 8.46116 7359.07 22 384.336 76.5158 
-0.3911 321.206 6.06672 7445.8 17 242.669 0 
-0.3903 267.665 6.54238 7390.75 22 416.507 113.153 
-0.3895 433.899 10.1235 7365.68 21 242.623 77.8293 
-0.3887 308.027 7.87115 7359.51 23 212.671 172.39 
-0.3879 329.726 9.15828 7378.22 25 444.685 147.531 
-0.3871 365.346 10.5536 7442.32 26 357.13 179.256 
-0.3863 296.176 8.22643 7385.05 25 397.032 200.636 
-0.3855 291.388 7.12223 7485.85 22 314.783 0 
-0.3847 226.542 6.04061 7410.29 24 281.782 112.98 
-0.3839 373.704 12.0406 7391.36 29 348.115 102.786 
-0.3831 193.447 4.08353 7319.83 19 309.016 0 
-0.3823 246.511 4.92981 7379.42 18 268.598 81.4807 
-0.3815 198.627 3.75153 7441.18 17 327.566 83.3767 
-0.3807 389.986 7.79907 7463.79 18 391.525 81.8019 
-0.3799 275.415 5.20186 7359.85 17 285.545 83.0049 
-0.3791 320.725 9.26461 7421.9 26 307.934 146.378 
-0.3783 204.237 2.94984 7349.85 13 269.574 91.6271 
-0.3775 186.976 3.53148 7471.67 17 299.387 274.21 
-0.3767 260.55 4.9211 7428.16 17 376.171 0 
-0.3759 205.138 3.41868 7438.09 15 299.627 113.351 
-0.3751 307.249 8.87535 7397.63 26 299.25 218.675 
-0.3743 288.298 5.76548 7427.17 18 188.412 82.1134 
-0.3735 236.381 2.62624 7499.22 10 280.682 100.052 
-0.3727 409.607 8.19145 7397.86 18 374.558 81.4807 
-0.3719 194.668 5.83955 7323.46 27 334.73 72.2752 
-0.3711 365.132 7.70769 7290.43 19 176.613 80.6333 
-0.3703 266.665 10.0732 7346.01 34 262.874 135.046 
-0.3695 320.677 8.19439 7396.24 23 263.13 75.4912 
-0.3687 233.56 5.18979 7412.9 20 372.881 79.0455 
-0.3679 275.416 7.9558 7309.54 26 449.757 73.0127 
-0.3671 243.41 4.0565 7403.32 15 285.659 176.068 
-0.3663 322.255 8.59276 7442 24 322.552 109.904 
-0.3655 235.339 5.22931 7373.1 20 248.074 79.2785 
-0.3647 302.083 6.71238 7449.42 20 417.105 0 
-0.3639 224.955 4.99858 7399.3 20 184.738 201.413 
-0.3631 227.988 4.81268 7441.83 19 363.464 0 
-0.3623 209.843 3.96336 7416.87 17 365.866 0 
-0.3615 230.85 7.1814 7414.13 28 373.246 160.614 
-0.3607 302.14 6.37797 7344.75 19 328.479 80.0856 
-0.3599 275.433 6.73225 7349.54 22 334.285 76.5158 
-0.3591 288.414 6.08823 7442.59 19 321.904 160.171 
-0.3583 423.163 8.46255 7403.58 18 559.926 0 
-0.3575 271.581 6.03463 7377.77 20 319.298 79.0455 
-0.3567 240.41 4.2736 7414.03 16 268.979 222.793 
-0.3559 261.207 5.22371 7331.7 18 193.058 81.4807 
-0.3551 277.241 6.1604 7369.64 20 309.964 178.855 
-0.3543 262.997 5.55169 7361.16 19 360.221 160.171 
-0.3535 323.911 8.6369 7383.92 24 338.898 0 
-0.3527 287.003 5.10184 7371.01 16 327.492 84.6795 
-0.3519 223.711 3.97675 7371.68 16 172.732 196.935 
-0.3511 231.422 6.42785 7412.32 25 319.154 73.9933 
-0.3503 326.045 9.4183 7362.02 26 357.296 164.64 
-0.3495 275.33 7.03562 7357.84 23 362.776 187.538 
-0.3487 295.81 5.91572 7400.84 18 205.161 186.825 
-0.3479 299.192 6.31576 7414.48 19 219.391 0 
-0.3471 198.077 3.74114 7391.12 17 399.731 106.568 
-0.3463 225.102 5.25193 7370.23 21 264.042 155.659 
-0.3455 323.239 10.4146 7322.18 29 333.049 299.618 
-0.3447 226.175 5.0257 7338.83 20 396.769 0 
-0.3439 236.799 3.15705 7427.22 12 248.455 0 
-0.3431 277.12 11.3918 7397.4 37 309.605 169.459 
-0.3423 214.656 4.05428 7290.78 17 325.975 83.0049 
-0.3415 240.779 4.28016 7482.32 16 282.237 0 
-0.3407 287.976 5.75904 7498.54 18 279.84 163.604 
-0.3399 246.496 7.39426 7406.09 27 338.078 177.499 
-0.3391 277.108 5.84956 7353.16 19 445.052 80.0856 
-0.3383 288.162 7.68369 7317.18 24 413.568 266.905 
-0.3375 233.989 4.41942 7388.11 17 280.98 166.01 
-0.3367 255.121 4.53511 7396.77 16 244.28 193.869 
-0.3359 251.144 8.37075 7361.66 30 307.265 139.826 
-0.3351 265.606 6.19695 7413.44 21 166.896 0 
-0.3343 237.788 5.81211 7341 22 308.768 76.7031 
-0.3335 292.103 4.86798 7436.59 15 346.579 86.531 
-0.3327 257.736 6.87239 7395.63 24 403.176 74.8155 
-0.3319 272.393 8.77639 7393.34 29 317.868 188.886 
-0.3311 340.72 6.05675 7391.18 16 464.952 0 
-0.3303 326.248 8.69923 7515.04 24 317.713 168.646 
-0.3295 250.016 5.55544 7381.2 20 294.371 180.656 
-0.3287 311.439 6.57428 7298.35 19 323.677 80.8879 
-0.3279 219.561 4.63479 7431.87 19 238.108 80.3645 
-0.3271 215.852 3.83705 7595.61 16 359.486 85.5383 
-0.3263 324.538 7.57191 7439.54 21 196.819 77.6162 
-0.3255 293.235 5.53843 7354.54 17 424.881 83.3767 
-0.3247 260.677 5.50271 7285.69 19 270.084 80.0856 
-0.3239 278.166 6.79905 7421.03 22 326.512 113.153 
-0.3231 334.503 5.94623 7461.9 16 367.547 85.5383 
-0.3223 309.204 6.52709 7360.7 19 369.031 184.156 
-0.3215 293.784 3.91679 7487.4 12 391.434 0 
-0.3207 320.395 4.27158 7457.04 12 485.568 188.807 
-0.3199 286.563 6.36755 7421.83 20 342.776 197.895 
-0.3191 228.078 3.29419 7392.45 13 303.004 90.9094 
-0.3183 223.288 5.70578 7427.5 23 243.663 75.6561 
-0.3175 328.851 7.3072 7448.85 20 227.835 79.0455 
-0.3167 343.837 5.73014 7439.29 15 352.027 0 
-0.3159 261.665 5.23286 7435.66 18 345.493 165.374 
-0.3151 363.821 5.65897 7397.75 14 398.529 0 
-0.3143 251.274 5.30423 7410.38 19 286.774 80.8879 
-0.3135 350.878 5.84748 7443.38 15 313.154 174.078 
-0.3127 282.682 5.96724 7433.54 19 341.979 161.776 
-0.3119 188.858 4.61615 7342.73 22 432.046 97.612 
-0.3111 244.492 5.43269 7425.15 20 376.47 197.895 
-0.3103 268.151 6.25634 7486.38 21 313.256 0 
-0.3095 245.684 3.54847 7338.24 13 271.007 90.9094 
-0.3087 235.54 4.44873 7384.98 17 271.956 0 
-0.3079 328.456 8.02825 7377.53 22 355.302 154.089 
-0.3071 295.741 6.24291 7549.13 19 349.171 184.156 
-0.3063 207.806 5.31014 7402.12 23 321.597 362.097 
-0.3055 193.818 3.23003 7408.2 15 556.646 224.213 
-0.3047 350.557 10.5158 7349.4 27 418.467 162.565 
-0.3039 335.512 6.70968 7411.18 18 328.717 164.821 
-0.3031 312.792 9.03545 7454.02 26 214.814 0 
-0.3023 259.746 4.90591 7338.75 17 230.212 166.01 
-0.3015 248.433 5.24426 7476.69 19 236.656 80.8879 
-0.3007 267.367 5.941 7436.54 20 293.008 201.413 
-0.2999 255.142 5.38588 7322.82 19 330.097 184.156 
-0.2991 255.478 4.82529 7431.41 17 307.347 83.0049 
-0.2983 305.617 6.45137 7497.28 19 353.649 103.523 
-0.2975 373.827 7.47591 7488.88 18 244.114 0 
-0.2967 289.259 11.248 7399.7 35 244.017 162.795 
-0.2959 341.501 11.7618 7390.35 31 290.143 0 
-0.2951 294.115 4.90151 7409 15 277.451 87.039 
-0.2943 234.331 3.9052 7390.37 15 326.786 198.637 
-0.2935 296.702 8.57069 7427.66 26 343.341 72.9075 
-0.2927 242.022 5.10893 7437.08 19 373.685 161.776 
-0.2919 278.791 3.40716 7359.32 11 373.87 0 
-0.2911 182.292 3.64554 7361.25 18 356.231 0 
-0.2903 276.707 6.14852 7431.18 20 301.164 79.4976 
-0.2895 214.172 4.75898 7393.36 20 293.873 79.0455 
-0.2887 271.89 7.85396 7346.23 26 318.483 145.815 
-0.2879 303.471 8.7662 7405.47 26 408.979 145.815 
-0.2871 210.131 3.73535 7345.04 16 326.116 170.225 
-0.2863 246.421 5.20179 7415.83 19 417.782 80.3645 
-0.2855 321.108 9.27567 7366.73 26 253.185 163.703 
-0.2847 275.38 7.95475 7437.39 26 323.067 145.815 
-0.2839 290.167 3.2238 7310.99 10 297.008 163.615 
-0.2831 215.28 4.30524 7445.77 18 332.542 106.768 
-0.2823 253.157 3.93767 7412.86 14 261.762 89.1941 
-0.2815 330.25 5.50371 7325.73 15 333.864 87.039 
-0.2807 313.105 5.21797 7405.95 15 481.417 87.039 
-0.2799 317.21 5.28639 7520.7 15 414.022 87.5423 
-0.2791 294.077 10.1285 7390.8 31 328.813 138.575 
-0.2783 202.87 4.50784 7416.61 20 275.877 79.0455 
-0.2775 300.356 8.00882 7413.96 24 375.894 149.068 
-0.2767 372.331 11.5827 7417.62 28 337.477 88.5933 
-0.2759 310.559 9.66104 7417.28 28 348.941 90.0921 
-0.2751 206.748 5.28313 7415.91 23 360.578 150.982 
-0.2743 202.185 3.81873 7469.92 17 337.398 106.568 
-0.2735 315.953 7.72265 7309.47 22 291.404 174.492 
-0.2727 247.592 7.15207 7394.67 26 280.507 212.697 
-0.2719 254.275 5.65007 7312.9 20 262.559 79.0455 
-0.2711 296.938 5.93826 7378.46 18 245.202 185.674 
-0.2703 334.596 6.69137 7439.57 18 275.27 0 
-0.2695 253.146 6.46875 7439.63 23 318.448 189.482 
-0.2687 256.044 5.68938 7405.57 20 361.226 0 
-0.2679 189.29 3.57518 7576.38 17 230.987 83.3767 
-0.2671 289.138 5.13981 7361.98 16 369.719 0 
-0.2663 259.903 5.48638 7426.67 19 270.87 80.3645 
-0.2655 313.111 6.26171 7338.82 18 413.372 81.4807 
-0.2647 281.207 7.49822 7451.07 24 228.205 169.784 
-0.2639 368.303 10.2298 7403.35 25 414.238 216.129 
-0.2631 264.084 8.21526 7430.61 28 259.309 192.131 
-0.2623 205.796 4.57286 7447.93 20 252.9 78.8022 
-0.2615 272.778 6.97042 7478.65 23 300.77 75.6561 
-0.2607 218.451 4.61136 7339.15 19 355.088 203.483 
-0.2599 269.17 5.38295 7438.48 18 314.929 81.8019 
-0.2591 309.266 8.59001 7365.38 25 245.541 0 
-0.2583 229.103 5.09075 7472.67 20 409.327 0 
-0.2575 286.957 7.97037 7393.98 25 337.634 147.77 
-0.2567 372.907 6.62891 7332.26 16 265.862 109.19 
-0.2559 218.737 4.13136 7408.97 17 320.395 166.753 
-0.2551 253.207 5.06372 7397.92 18 311.788 81.4807 
-0.2543 248.33 7.17339 7399.74 26 328.277 146.025 
-0.2535 218.996 6.32603 7348.88 26 398.921 0 
-0.2527 262.768 3.79522 7405.61 13 264.844 0 
-0.2519 386.201 8.58152 7447.79 20 309.409 159.397 
-0.2511 414.021 10.1197 7411.3 22 248.306 196.314 
-0.2503 321.514 5.71532 7379.25 16 416.906 85.1125 
-0.4993 364.823 7.29585 7419.79 18 322.475 82.1134 
-0.4985 259.335 6.62691 7368.55 23 224.37 95.9469 
-0.4977 354.152 8.65633 7368.96 22 342.691 173.779 
-0.4969 243.326 4.86611 7387.93 18 192.241 81.8019 
-0.4961 286.28 7.6335 7432.09 24 225.614 168.07 
-0.4953 385.434 8.13626 7388.59 19 279.948 80.0856 
-0.4945 166.357 4.43581 7445.77 24 281.698 169.784 
-0.4937 300.835 7.0189 7405.1 21 288.985 78.0321 
-0.4929 222.09 5.18167 7491.5 21 389.431 77.8293 
-0.4921 216.839 5.54098 7471.19 23 225.787 171.758 
-0.4913 225.134 5.00256 7394.03 20 511.958 235.571 
-0.4905 233.464 4.92828 7397.28 19 353.435 80.6333 
-0.4897 189.06 3.15074 7436.74 15 369.399 87.039 
-0.4889 270.981 5.72024 7290.41 19 222.2 0 
-0.4881 301.03 7.3579 7501.49 22 233.204 0 
-0.4873 257.73 2.57708 7372.63 9 196.252 208.388 
-0.4865 256.594 4.27621 7313.92 15 267.833 350.113 
-0.4857 265.186 5.59791 7355.15 19 233.05 80.0856 
-0.4849 236.055 6.032 7442.3 23 313.141 0 
-0.4841 222.793 4.45548 7482.58 18 204.668 81.4807 
-0.4833 323.784 8.99325 7289.16 25 299.831 313.042 
-0.4825 220.31 5.87446 7368.29 24 278.197 74.6794 
-0.4817 222.497 5.19116 7314.04 21 286.698 0 
-0.4809 305.494 5.76997 7414.45 17 285.38 83.7397 
-0.4801 260.359 4.62822 7387.4 16 281.659 0 
-0.4793 282.682 6.2813 7435.88 20 326.4 0 
-0.4785 234.799 5.99992 7409.41 23 358.634 95.4641 
-0.4777 390.334 7.80603 7318.02 18 295.436 0 
-0.4769 241.271 7.23752 7390.53 27 344.014 90.0436 
-0.4761 185.72 5.15845 7368.75 25 305.4 92.9674 
-0.4753 198.299 5.50785 7422.31 25 252.471 122.021 
-0.4745 345.822 4.99479 7340.73 13 317.074 91.6271 
-0.4737 325.969 6.51884 7324.1 18 326.384 106.768 
-0.4729 371.915 7.43767 7306.56 18 248.166 81.8019 
-0.4721 267.984 5.65696 7366.59 19 247.658 80.6333 
-0.4713 260.294 4.91625 7505.12 17 204.479 83.0049 
-0.4705 214.584 3.09928 7386.46 13 360.825 0 
-0.4697 305.614 4.41406 7355.11 13 248.663 119.07 
-0.4689 272.493 7.87137 7458.07 26 222.734 197.616 
-0.4681 300.188 8.00435 7401.28 24 255.05 74.9398 
-0.4673 327.033 7.63014 7327.86 21 419.02 77.6162 
-0.4665 323.624 6.47195 7357.8 18 440.265 81.8019 
-0.4657 275.6 5.20533 7478.46 17 316.052 166.753 
-0.4649 328.809 8.03689 7505.9 22 223.477 153.406 
-0.4641 372.973 8.70198 7399.15 21 298.613 192.991 
-0.4633 261.361 6.09792 7426.91 21 295.796 232.798 
-0.4625 218.894 4.6207 7341.89 19 406.906 81.3315 
-0.4617 189.232 4.41503 7378.5 21 455.267 194.161 
-0.4609 393.861 7.00138 7340.42 16 266.699 0 
-0.4601 242.021 5.37779 7379.38 20 283.001 158.091 
-0.4593 205.78 5.02976 7381.75 22 458.719 153.406 
-0.4585 324.496 3.24469 7462.19 9 453.578 0 
-0.4577 262.05 6.40512 7388.96 22 242.226 76.7031 
-0.4569 324.297 6.1251 7391.67 17 337.95 213.32 
-0.4561 261.288 11.0313 7425.78 38 261.124 0 
-0.4553 234.791 4.17371 7347.17 16 231.728 110.269 
-0.4545 286.545 7.32219 7351.63 23 410.422 151.622 
-0.4537 214.25 2.85643 7354.27 12 278.878 93.536 
-0.4529 233.822 5.1956 7428.37 20 275.679 225.098 
-0.4521 371.887 5.37125 7368.61 13 174.742 0 
-0.4513 284.775 7.59337 7425.98 24 345.491 149.068 
-0.4505 281.154 6.87209 7372.76 22 388.116 190.72 
-0.4497 224.046 4.23163 7426.9 17 279.322 213.32 
-0.4489 275.321 4.28241 7405.58 14 275.965 88.5933 
-0.4481 201.155 4.02276 7339.21 18 300.373 105.881 
-0.4473 217.273 4.58648 7447.7 19 358.254 183.131 
-0.4465 264.513 5.58369 7375.6 19 295.353 103.523 
-0.4457 317.408 7.75822 7404.91 22 394.743 114.017 
-0.4449 264.727 4.99998 7381.99 17 259.941 83.7397 
-0.4441 182.081 4.8551 7415.29 24 286.419 0 
-0.4433 233.565 4.67091 7311.72 18 253 0 
-0.4425 349.153 8.53414 7336.65 22 324.364 113.153 
-0.4417 296.858 6.5963 7496.31 20 336.431 219.556 
-0.4409 360.319 8.80705 7307.76 22 338.342 190.72 
-0.4401 231.074 5.90473 7284.45 23 338.126 151.312 
-0.4393 231.537 5.91656 7383.05 23 299.915 96.436 
-0.4385 386.42 3.00524 7322.49 7 284.33 0 
-0.4377 294.743 5.89437 7373.85 18 318.198 104.194 
-0.4369 294.545 9.49009 7338.88 29 354.86 0 
-0.4361 372.247 6.61717 7438.63 16 291.833 85.5383 
-0.4353 329.027 5.11778 7402.06 14 403.752 0 
-0.4345 191.921 4.90425 7320.31 23 351.207 151.908 
-0.4337 322.571 4.65897 7289.73 13 425.632 119.07 
-0.4329 180.172 3.20278 7425.42 16 265.799 109.19 
-0.4321 225.834 5.01813 7388.64 20 321.934 179.752 
-0.4313 329.803 8.79402 7346.92 24 293.281 74.6794 
-0.4305 237.073 4.47766 7364.13 17 205.404 107.51 
-0.4297 259.005 7.7695 7436.03 27 284.803 222.68 
-0.4289 283.882 6.62336 7436.77 21 348.138 178.247 
-0.4281 185.962 4.54535 7413.01 22 281.856 76.7031 
-0.4273 303.575 6.74555 7440.98 20 287.21 180.656 
-0.4265 189.605 3.58113 7438.38 17 366.172 193.597 
-0.4257 269.277 7.4793 7353.22 25 323.156 147.273 
-0.4249 226.423 7.29523 7352.7 29 307.24 141.236 
-0.4241 287.906 7.03712 7396.28 22 289.346 97.0757 
-0.4233 329.057 6.21499 7407.51 17 348.217 83.0049 
-0.4225 282.722 9.73738 7381.71 31 365.126 207.984 
-0.4217 310.016 6.54425 7424.2 19 261.07 0 
-0.4209 177.108 2.55801 7401.69 13 184.986 0 
-0.4201 232.992 3.88288 7403.52 15 385.882 0 
-0.4193 353.789 6.68213 7428.09 17 356.042 83.3767 
-0.4185 303.871 8.10256 7437.4 24 228.639 0 
-0.4177 307.846 8.89259 7431.85 26 309.711 73.1072 
-0.4169 319.08 8.15358 7365.77 23 217.347 75.6561 
-0.4161 283.383 6.92657 7387.62 22 262.464 153.406 
-0.4153 238.694 5.83425 7428.38 22 281.158 114.017 
-0.4145 347.783 8.11427 7460.37 21 412.532 98.8171 
-0.4137 244.448 4.0738 7442.24 15 195.627 173.062 
-0.4129 331.714 7.3708 7350.77 20 322.373 0 
-0.4121 251.711 4.75415 7391.64 17 386.859 0 
-0.4113 348.01 4.63975 7338.83 12 375.715 94.4034 
-0.4105 216.575 2.40619 7402.51 10 367.75 0 
-0.4097 247.07 6.03899 7359.3 22 315.843 114.913 
-0.4089 247.85 4.95659 7366.89 18 266.423 0 
-0.4081 274.861 6.71827 7402.41 22 389.05 175.902 
-0.4073 168.591 5.24462 7442.32 28 349.948 0 
-0.4065 320.213 6.04796 7451.34 17 370.238 0 
-0.4057 219.572 3.17134 7400.59 13 268.58 0 
-0.4049 193.254 3.86476 7376.6 18 324.516 0 
-0.4041 344.331 6.12093 7522.99 16 195.369 198.526 
-0.4033 270.662 6.61562 7497.68 22 354.046 231.527 
-0.4025 287.784 7.35387 7422.84 23 301.045 0 
-0.4017 250.681 6.12725 7426.87 22 316.913 0 
-0.4009 298.953 9.63212 7406.44 29 287.448 141.38 
-0.4001 240.647 5.882 7345.69 22 388.335 76.7031 
-0.3993 348.393 6.5802 7443.68 17 438.85 84.0885 
-0.3985 167.921 3.35815 7430.74 18 284.396 163.604 
-0.3977 263.027 4.67565 7485.3 16 227.826 195.381 
-0.3969 304.683 7.10868 7381.29 21 313.832 155.232 
-0.3961 264.903 5.29761 7406.54 18 257.135 81.4807 
-0.3953 220.768 5.88666 7428.5 24 240.633 0 
-0.3945 269.563 6.88825 7380.6 23 365.806 150.982 
-0.3937 304.286 7.43749 7469.4 22 225.46 0 
-0.3929 330.825 7.71861 7461.12 21 314.62 99.4156 
-0.3921 236.746 5.78663 7344.63 22 252.775 193.995 
-0.3913 178.017 4.35116 7436.36 22 255.176 76.5158 
-0.3905 185.223 3.70416 7364.77 18 197.812 123.292 
-0.3897 243.402 6.21975 7349.68 23 358.846 75.6561 
-0.3889 197.968 5.93854 7412.88 27 297.378 178.156 
-0.3881 344.682 8.04191 7333.51 21 223.195 156.064 
-0.3873 277.653 6.16955 7379.92 20 299.778 79.2785 
-0.3865 237.435 6.33106 7448.86 24 237.888 94.4034 
-0.3857 293.446 7.82456 7396.59 24 441.419 149.631 
-0.3849 237.671 3.96085 7450.89 15 398.26 112.106 
-0.3841 236.268 7.34995 7391.6 28 330.85 142.84 
-0.3833 125.3 1.67052 7398.52 12 258.614 187.072 
-0.3825 275.38 5.8131 7333.03 19 375.873 160.729 
-0.3817 207.017 5.29 7355.53 23 281.046 0 
-0.3809 278.623 7.73889 7442.64 25 319.658 166.852 
-0.3801 270.096 6.30171 7480.59 21 346.389 99.4156 
-0.3793 401.002 8.91041 7357.35 20 180.963 101.378 
-0.3785 232.118 3.61043 7424.75 14 288.452 0 
-0.3777 237.872 5.81416 7306.95 22 240.543 76.7031 
-0.3769 300.221 8.00522 7414.11 24 426.278 150.099 
-0.3761 215.553 5.50811 7398.98 23 283.624 75.6561 
-0.3753 213.455 3.79444 7475.2 16 286.238 195.381 
-0.3745 237.282 3.69075 7315.65 14 238.697 0 
-0.3737 370.928 7.00584 7475.02 17 477.841 127.977 
-0.3729 248.807 4.42287 7322.81 16 167.554 85.1125 
-0.3721 312.228 7.28472 7380.02 21 236.84 0 
-0.3713 272.922 7.88376 7346.58 26 214.155 145.815 
-0.3705 247.882 6.88503 7428.92 25 304.774 313.82 
-0.3697 167.405 2.60387 7395.91 14 312.61 140.616 
-0.3689 277.046 8.92628 7341.22 29 390.612 87.8093 
-0.3681 205.566 3.6542 7400.67 16 265.03 85.9507 
-0.3673 230.206 5.11526 7374.41 20 340.15 178.855 
-0.3665 199.115 4.64562 7352.5 21 371.534 176.646 
-0.3657 275.184 6.72616 7437.18 22 428.387 76.5158 
-0.3649 234.003 6.23956 7394.63 24 335.027 338.389 
-0.3641 292.948 6.50941 7412.32 20 245.334 0 
-0.3633 396.883 5.73228 7452.63 13 319.318 184.702 
-0.3625 245.76 7.64522 7331.03 28 294.276 160.614 
-0.3617 212.471 4.48513 7361.98 19 441.344 80.8879 
-0.3609 289.451 8.03965 7357.49 25 411.679 185.935 
-0.3601 258.844 6.90192 7443.09 24 310.174 149.631 
-0.3593 257.146 4.57111 7441.69 16 301.132 214.656 
-0.3585 202.487 4.04941 7384.57 18 384.159 81.4807 
-0.3577 251.343 6.42266 7367.03 23 363.402 151.312 
-0.3569 206.7 3.904 7341.41 17 380.437 194.981 
-0.3561 272.723 5.45401 7514.99 18 261.396 81.8019 
-0.3553 206.724 5.51219 7436.8 24 410.387 169.219 
-0.3545 336.582 6.73109 7264.94 18 212.258 82.1134 
-0.3537 276.764 7.07226 7406.69 23 253.23 151.908 
-0.3529 270.949 3.91339 7470.79 13 419.062 92.3511 
-0.3521 206.884 4.82689 7351.66 21 320.579 0 
-0.3513 286.64 4.14001 7398.23 13 137.608 119.07 
-0.3505 231.553 5.65971 7431.94 22 256.124 76.5158 
-0.3497 283.326 5.66605 7408.28 18 345.981 186.825 
-0.3489 224.829 6.24474 7311.25 25 337.749 186.732 
-0.3481 300.315 6.33945 7400.25 19 310.966 103.523 
-0.3473 442.386 9.33848 7447.3 19 370.272 0 
-0.3465 262.837 5.54832 7337.46 19 400.832 80.3645 
-0.3457 346.477 10.3934 7413.38 27 345.32 162.977 
-0.3449 235.369 5.49148 7472.27 21 398.402 0 
-0.3441 228.644 4.82653 7384.09 19 314.601 0 
-0.3433 226.609 4.53181 7442.67 18 247.067 0 
-0.3425 255.392 7.94486 7373.62 28 342.687 71.3383 
-0.3417 287.955 7.67815 7406.34 24 325.615 0 
-0.3409 323.433 6.10878 7417.24 17 258.076 107.51 
-0.3401 300.778 5.01255 7381.42 15 390.639 173.062 
-0.3393 215.57 4.79004 7346.45 20 414.548 0 
-0.3385 296.84 3.95754 7461.89 12 450.132 94.4034 
-0.3377 236.735 4.20828 7401.92 16 260.885 220.537 
-0.3369 220.238 4.64909 7267.41 19 314.351 0 
-0.3361 295.758 8.54342 7446.3 26 306.82 73.1891 
-0.3353 324.111 7.20186 7442.71 20 324.264 79.0455 
-0.3345 188.182 4.39055 7372.74 21 308.916 175.848 
-0.3337 266.693 5.92601 7319.63 20 276.26 158.557 
-0.3329 268.439 5.9648 7383.09 20 158.734 100.052 
-0.3321 340.262 7.18272 7454.34 19 357.406 103.523 
-0.3313 267.065 7.41787 7348.9 25 235.265 166.337 
-0.3305 350.403 10.1219 7379.39 26 307.642 0 
-0.3297 176.08 4.89071 7394.57 25 257.958 108.064 
-0.3289 185.338 3.50053 7433.12 17 310.448 0 
-0.3281 230.846 4.61654 7384.17 18 275.38 0 
-0.3273 292.043 6.81377 7351.24 21 329.468 0 
-0.3265 259.033 6.61917 7519.76 23 356.993 127.872 
-0.3257 345.67 7.29687 7413.44 19 233.53 0 
-0.3249 240.074 5.33453 7356.91 20 310.857 100.707 
-0.3241 281.77 5.63493 7419.37 18 262.627 206.432 
-0.3233 268.357 3.87594 7464.44 13 218.233 91.6271 
-0.3225 254.646 6.78998 7373.28 24 298.889 110.639 
-0.3217 211.274 4.45985 7416.42 19 311.765 182.117 
-0.3209 179.801 3.39596 7425.79 17 236.705 0 
-0.3201 290.726 7.42904 7381.17 23 292.675 151.312 
-0.3193 270.111 7.20236 7495.99 24 393.931 149.631 
-0.3185 187.064 4.98797 7470.73 24 318.933 0 
-0.3177 338.148 7.88947 7417.91 21 496.365 98.8171 
-0.3169 226.385 4.52733 7344.34 18 174.329 82.1134 
-0.3161 242.687 6.20149 7372.04 23 371.308 186.589 
-0.3153 177.134 4.32959 7433.25 22 230.515 114.017 
-0.3145 231.618 4.88931 7408 19 426.015 0 
-0.3137 271.358 5.12522 7312.96 17 460.668 83.3767 
-0.3129 143.82 3.5153 7385.95 22 346.376 0 
-0.3121 320.838 8.91142 7442.27 25 268.159 73.6366 
-0.3113 316.037 5.26685 7403.37 15 275.703 88.5032 
-0.3105 266.167 7.98435 7366.39 27 328.244 90.3722 
-0.3097 256.592 6.55679 7458.69 23 367.356 151.622 
-0.3089 233.821 6.49449 7334.78 25 316.968 201.702 
-0.3081 192.491 5.13265 7378.6 24 310.261 110.639 
-0.3073 272.081 5.13889 7407.17 17 394.319 106.568 
-0.3065 331.018 9.56194 7388.6 26 331.826 146.025 
-0.3057 279.285 7.75728 7313.03 25 318.315 73.6366 
-0.3049 284.016 5.99539 7360.09 19 248.611 0 
-0.3041 265.257 5.01 7341.31 17 231.986 83.3767 
-0.3033 431.461 6.71105 7359.61 14 170.757 0 
-0.3025 423.037 7.52003 7392.22 16 266.478 85.9507 
-0.3017 317.682 7.05902 7470.51 20 392.491 236.082 
-0.3009 245.3 9.2661 7353.01 34 260.966 150.485 
-0.3001 340.934 4.92419 7440.4 13 460.93 90.9094 
-0.2993 232.461 7.48978 7446.87 29 347.469 158.775 
-0.2985 315.882 3.86046 7394.13 11 378.129 96.5489 
-0.2977 294.507 4.25363 7460.53 13 247.142 90.9094 
-0.2969 309.91 9.29653 7386.16 27 304.529 0 
-0.2961 221.888 5.17696 7507.38 21 351.92 312.835 
-0.2953 220.861 5.39837 7391.3 22 354.765 76.7031 
-0.2945 414.76 8.29451 7441.52 18 412.357 81.4807 
-0.2937 192.13 3.62882 7426.69 17 236.127 0 
-0.2929 283.906 6.30849 7446.99 20 278.859 240.633 
-0.2921 297.802 8.27158 7337.62 25 323.966 166.337 
-0.2913 267.514 5.94425 7385.48 20 406.655 337.792 
-0.2905 401.964 8.0386 7414.86 18 347.946 163.604 
-0.2897 252.928 4.21511 7238.58 15 368.509 0 
-0.2889 253.646 7.32694 7377.08 26 369.477 0 
-0.2881 242.223 4.57495 7424.98 17 293.548 84.0885 
-0.2873 247.761 5.78061 7408.44 21 239.784 155.659 
-0.2865 324.463 8.29115 7411.06 23 278.162 151.622 
-0.2857 208.295 4.16555 7398.01 18 295.809 81.8019 
-0.2849 340.906 4.92379 7370.29 13 218.125 0 
-0.2841 194.518 3.45781 7426.78 16 289.941 84.6795 
-0.2833 275.29 4.58779 7364.21 15 561.399 0 
-0.2825 344.302 9.18063 7359.54 24 408.954 74.8155 
-0.2817 291.788 5.51109 7403.04 17 341.712 0 
-0.2809 340.398 6.8074 7330.51 18 341.493 186.825 
-0.2801 223.581 5.46485 7459.87 22 336.857 0 
-0.2793 257.98 4.58593 7388.1 16 364.287 0 
-0.2785 213.396 4.03049 7446.4 17 476.035 84.0885 
-0.2777 283.571 4.72579 7409.37 15 403.298 0 
-0.2769 287.509 7.34684 7385.55 23 349.429 0 
-0.2761 198.227 3.96421 7383.51 18 339.207 142.585 
-0.2753 293.764 5.54841 7378.2 17 513.183 83.3767 