ITEM: TIMESTEP
12000
ITEM: NUMBER OF CELLS
5000
ITEM: BOX BOUNDS or pp pp
-0.5 0.5
0 0.0002
-0.5 0.5
ITEM: CELLS xc c_1[1] c_1[2] c_2[1] c_2[2] c_2[3] c_3[1] 
-0.4999 257.999 5.73283 7344.26 20 216.724 158.557 
-0.4991 281.64 6.88395 7447.24 22 263.045 76.7031 
-0.4983 245.649 4.91258 7338.04 18 352.385 81.8019 
-0.4975 267.907 8.03655 7408.86 27 287.357 72.1001 
-0.4967 282.107 5.32824 7511.61 17 173.488 0 
-0.4959 337.65 5.62704 7336.68 15 374.212 0 
-0.4951 259.1 4.8937 7428.03 17 238.917 166.753 
-0.4943 228.913 3.56057 7389.5 14 323.54 116.824 
-0.4935 256.884 5.13725 7435.61 18 308.648 124.63 
-0.4927 331.031 4.0456 7372.7 11 361.678 0 
-0.4919 369.327 5.7446 7444.86 14 251.252 0 
-0.4911 201.244 2.45945 7441.85 11 325.553 0 
-0.4903 296.102 6.90847 7480.34 21 323.317 0 
-0.4895 188.477 4.18802 7432.28 20 301.44 179.752 
-0.4887 367.43 8.16442 7358.71 20 325.015 199.238 
-0.4879 329.618 11.7188 7379.39 32 275.392 153.568 
-0.4871 248.966 6.08533 7407.13 22 352.175 113.153 
-0.4863 310.794 6.90596 7380.43 20 187.962 133.899 
-0.4855 330.214 6.97059 7449.84 19 201.076 80.0856 
-0.4847 324.491 5.40774 7445.73 15 316.682 0 
-0.4839 344.587 9.18821 7427.52 24 204.56 185.454 
-0.4831 404.501 8.98816 7378.87 20 302.859 100.707 
-0.4823 305.031 8.13347 7376.45 24 324.774 93.967 
-0.4815 390.215 6.50304 7472.92 15 252.164 87.039 
-0.4807 311.115 7.95007 7259.18 23 250.879 96.436 
-0.4799 341.792 7.21501 7347.99 19 237.305 240.205 
-0.4791 209.288 5.81307 7370.24 25 343.528 73.885 
-0.4783 177.07 3.14766 7410.14 16 372.709 171.901 
-0.4775 295.084 9.50747 7430.22 29 300.185 191.146 
-0.4767 302.242 7.72332 7437.49 23 263.547 150.982 
-0.4759 271.762 6.94446 7389.2 23 361.597 151.312 
-0.4751 193.089 2.78883 7412.07 13 296.437 91.6271 
-0.4743 162.962 3.25896 7487.09 18 345.675 81.8019 
-0.4735 300.041 6.66703 7422.67 20 226.22 79.2785 
-0.4727 302.926 5.38491 7379.07 16 291.235 0 
-0.4719 325.287 6.86659 7357.85 19 194.892 102.032 
-0.4711 221.713 4.4339 7466.08 18 323.84 0 
-0.4703 239.275 5.58262 7439.61 21 219.53 98.2313 
-0.4695 325.003 8.30495 7440.58 23 282.217 96.436 
-0.4687 225.08 4.50123 7482.86 18 252.976 0 
-0.4679 224.948 5.49827 7381.64 22 445.919 76.5158 
-0.4671 269.773 5.0953 7340.13 17 351.906 83.7397 
-0.4663 250.62 7.51797 7415.8 27 286.262 90.0436 
-0.4655 245.68 7.64274 7434.72 28 354.602 88.5933 
-0.4647 443.324 7.88066 7260.42 16 258.558 214.656 
-0.4639 326.938 7.99115 7377.71 22 216.168 153.032 
-0.4631 198.994 2.21086 7379.09 10 437.108 100.052 
-0.4623 240.853 4.81665 7389.14 18 440.205 81.8019 
-0.4615 389.864 8.66293 7398 20 338.189 202.755 
-0.4607 206.235 5.27002 7386.54 23 323.606 75.9539 
-0.4599 305.832 4.4172 7413.94 13 295.035 90.9094 
-0.4591 414.283 7.82469 7391.89 17 389.535 0 
-0.4583 253.92 3.38531 7373.96 12 259.105 93.536 
-0.4575 318.823 6.37594 7361.97 18 389.809 81.8019 
-0.4567 256.528 5.13013 7394.92 18 318.073 0 
-0.4559 216.66 4.33283 7490.59 18 324.507 208.152 
-0.4551 242.984 4.31936 7366 16 237.533 85.1125 
-0.4543 331.273 8.46517 7417.71 23 306.172 75.9539 
-0.4535 178.146 3.95848 7344.81 20 413.169 79.0455 
-0.4527 362.042 5.6313 7439.35 14 309.035 0 
-0.4519 232.605 4.91013 7486.54 19 283.989 0 
-0.4511 433.384 4.33348 7396.28 9 222.082 244.927 
-0.4503 280.825 5.30403 7345.85 17 263.008 108.49 
-0.4495 274.4 4.87782 7325.35 16 307.655 84.6795 
-0.4487 409.039 6.3623 7377.79 14 327.071 0 
-0.4479 322.176 6.80093 7463.19 19 278.447 160.729 
-0.4471 354.495 9.05856 7435.07 23 391.474 151.312 
-0.4463 217.995 3.14856 7329.5 13 242.742 92.3511 
-0.4455 238.63 2.91635 7466.17 11 301.339 0 
-0.4447 214.89 3.81995 7396.57 16 421.847 193.869 
-0.4439 354.836 10.25 7412.49 26 383.441 72.7933 
-0.4431 299.948 9.33093 7412.73 28 251.649 302.293 
-0.4423 323.641 6.83185 7378.75 19 246.218 102.032 
-0.4415 237.219 3.42622 7474.59 13 401.867 0 
-0.4407 295.169 8.52638 7380.66 26 294.344 0 
-0.4399 336.149 6.72242 7498.46 18 391.973 185.674 
-0.4391 227.238 5.04931 7342.64 20 284.835 121.119 
-0.4383 227.661 4.29991 7404.32 17 295.919 106.568 
-0.4375 223.737 5.46867 7441.74 22 232.872 0 
-0.4367 287.702 5.75355 7382.04 18 365.731 82.1134 
-0.4359 284.876 4.11453 7353.79 13 281.011 0 
-0.4351 317.616 6.70468 7470.25 19 338.064 182.117 
-0.4343 298.7 6.30536 7396.46 19 285.62 103.523 
-0.4335 191.192 4.88561 7358.19 23 328.313 0 
-0.4327 331.277 5.52082 7401.63 15 361.19 0 
-0.4319 178.198 4.94954 7390.72 25 390.2 184.219 
-0.4311 214.487 5.24257 7515.23 22 422.059 76.8802 
-0.4303 236.295 4.98804 7407.93 19 262.849 80.0856 
-0.4295 205.659 5.71227 7455.19 25 265.579 0 
-0.4287 264.212 4.99026 7373.39 17 394.706 0 
-0.4279 423.3 6.11382 7487.05 13 384.819 148.972 
-0.4271 253.759 5.07475 7578.93 18 229.438 81.4807 
-0.4263 295.844 8.54589 7337.27 26 403.188 91.6271 
-0.4255 268.936 5.97586 7470.92 20 309.227 217.838 
-0.4247 240.951 6.15711 7370.53 23 244.685 192.872 
-0.4239 274.442 6.40311 7455.9 21 358.404 78.0321 
-0.4231 285.879 6.98756 7393.47 22 313.854 173.065 
-0.4223 255.312 6.5241 7368.66 23 183.541 94.9884 
-0.4215 214.028 3.32904 7533.7 14 321.773 0 
-0.4207 254.234 6.49654 7374.02 23 333.79 95.9469 
-0.4199 181.539 3.2271 7341.89 16 268.404 170.17 
-0.4191 357.383 10.3235 7360.72 26 357.618 0 
-0.4183 275.099 6.41844 7404.91 21 222.234 178.247 
-0.4175 172.7 3.83746 7419.6 20 299.843 158.557 
-0.4167 317.516 7.05533 7364.03 20 297.778 158.091 
-0.4159 227.096 5.04615 7426.68 20 409.943 0 
-0.4151 229.993 5.11052 7402.34 20 235.829 79.0455 
-0.4143 288.539 3.84687 7400.8 12 204.657 93.536 
-0.4135 267.995 4.16846 7335.05 14 435.222 0 
-0.4127 269.023 7.47225 7297.17 25 299.927 73.885 
-0.4119 271.488 5.12769 7366.62 17 375.314 0 
-0.4111 363.814 2.42523 7383.9 6 152.436 123.292 
-0.4103 215.015 6.21104 7314.45 26 414.952 181.819 
-0.4095 212.739 4.9635 7389.52 21 318.168 77.8293 
-0.4087 210.766 4.21497 7404.88 18 309.039 105.023 
-0.4079 352.652 9.01147 7421.92 23 338.958 0 
-0.4071 280.767 4.05519 7448.44 13 315.628 0 
-0.4063 199.533 4.43371 7443.27 20 301.226 79.0455 
-0.4055 236.37 6.04007 7400.92 23 311.821 0 
-0.4047 306.235 8.84606 7365.2 26 273.256 252.94 
-0.4039 226.975 4.53912 7392.85 18 523.678 81.8019 
-0.4031 314.674 4.89453 7417.86 14 659.497 0 
-0.4023 217.497 4.59121 7408.3 19 279.176 160.729 
-0.4015 287.274 4.78751 7349.74 15 236.58 87.039 
-0.4007 309.785 7.57188 7479.07 22 357.895 77.0444 
-0.3999 213.025 3.55012 7341.4 15 271.14 87.5423 
-0.3991 324.452 8.29087 7311.74 23 244.921 75.8112 
-0.3983 289.631 3.53963 7248.51 11 372.304 128.173 
-0.3975 247.074 4.66656 7442.1 17 354.34 0 
-0.3967 233.551 5.18958 7351.15 20 282.89 79.0455 
-0.3959 176.955 4.12861 7409.81 21 325.983 198.831 
-0.3951 264.778 6.47181 7304.47 22 300.23 76.7031 
-0.3943 276.339 7.36843 7318.2 24 249.67 183.724 
-0.3935 312.517 8.33308 7464.24 24 367.243 0 
-0.3927 147.602 3.60775 7391.59 22 454.455 209.702 
-0.3919 319.262 6.73942 7498.47 19 336.375 161.776 
-0.3911 322.802 9.3246 7397.14 26 327.2 72.7933 
-0.3903 203.098 3.15903 7386.94 14 441.215 89.7945 
-0.3895 220.797 5.88744 7428.41 24 325.147 0 
-0.3887 159.609 3.19192 7374.76 18 304.002 81.4807 
-0.3879 242.513 4.04154 7325.8 15 306.291 0 
-0.3871 252.381 6.4492 7375 23 332.379 96.436 
-0.3863 281.549 6.56893 7444.53 21 474.339 98.8171 
-0.3855 237.896 6.34336 7401.18 24 342.681 169.219 
-0.3847 271.812 4.83182 7360.35 16 422.001 0 
-0.3839 371.312 7.83817 7403.33 19 294.853 80.3645 
-0.3831 264.009 5.27975 7389.92 18 302.801 163.604 
-0.3823 366.743 7.33424 7311.21 18 343.889 244.226 
-0.3815 358.077 7.55877 7275.61 19 270.636 0 
-0.3807 140.642 3.9064 7412 25 339.365 147.77 
-0.3799 310.67 5.17741 7514.34 15 483.749 0 
-0.3791 196.14 6.53745 7369.41 30 308.194 69.9355 
-0.3783 209.927 4.43143 7405.77 19 408.029 160.729 
-0.3775 349.51 7.37793 7333.22 19 363.071 160.729 
-0.3767 255.829 5.68461 7401.17 20 384.74 100.707 
-0.3759 308.564 6.17077 7437.05 18 380.207 0 
-0.3751 339.086 8.28808 7454.85 22 143.387 76.7031 
-0.3743 221.904 5.17733 7419.61 21 315.267 77.8293 
-0.3735 282.358 4.39187 7350.98 14 200.308 177.187 
-0.3727 223.028 6.19469 7355.45 25 391.568 92.9674 
-0.3719 296.263 4.60815 7275.89 14 377.376 0 
-0.3711 213.162 5.2102 7422 22 186.955 174.492 
-0.3703 247.498 3.84965 7365.23 14 216.518 88.5933 
-0.3695 231.894 6.6986 7412.21 26 471.145 0 
-0.3687 305.345 7.12413 7379.47 21 273.984 77.8293 
-0.3679 278.897 7.12678 7363.7 23 418.229 75.6561 
-0.3671 236.321 6.30138 7344.65 24 457.571 74.9398 
-0.3663 215.299 5.98002 7404.96 25 457.545 0 
-0.3655 248.594 4.97147 7400.53 18 391.66 82.4105 
-0.3647 167.085 2.78452 7552.89 15 287.881 0 
-0.3639 327.356 5.45547 7399.66 15 248.341 0 
-0.3631 292.946 6.18389 7422.57 19 400.272 80.3645 
-0.3623 215.109 4.77979 7398.3 20 309.293 100.707 
-0.3615 288.102 7.68209 7413.28 24 296.34 74.5338 
-0.3607 287.793 6.07513 7485.78 19 350.764 80.0856 
-0.3599 312.131 6.93566 7467.21 20 407.783 118.849 
-0.3591 236.329 3.15078 7487.13 12 469.683 127.523 
-0.3583 211.25 3.52054 7399.61 15 383.843 0 
-0.3575 332.936 8.50766 7351.24 23 213.317 76.0813 
-0.3567 239.019 4.51443 7539.81 17 352.787 166.01 
-0.3559 170.05 4.72322 7424.94 25 395.693 73.9933 
-0.3551 280.039 7.15596 7407.51 23 259.641 75.8112 
-0.3543 370.533 8.23337 7368.67 20 381.285 197.895 
-0.3535 281.172 4.99819 7427.33 16 339.209 85.5383 
-0.3527 328.65 7.66787 7405.93 21 427.168 0 
-0.3519 207.647 6.2289 7417.95 27 417.262 89.7164 
-0.3511 290.349 6.45167 7379.11 20 357.124 79.0455 
-0.3503 252.6 3.929 7452.8 14 317.82 178.331 
-0.3495 264.519 7.05326 7329.31 24 379.339 93.536 
-0.3487 266.286 3.84603 7435.61 13 291.983 0 
-0.3479 236.855 3.94725 7419.65 15 217.793 87.039 
-0.3471 260.798 4.34628 7366.05 15 263.348 198.637 
-0.3463 288.374 7.36895 7433.41 23 416.676 191.894 
-0.3455 380.473 7.60883 7267.9 18 264.818 306.136 
-0.3447 218.698 3.88764 7345.57 16 263.99 0 
-0.3439 303.277 9.09757 7422.43 27 365.481 90.3722 
-0.3431 217.45 6.03977 7355.12 25 345.704 147.483 
-0.3423 230.968 5.1322 7483.55 20 372.718 78.8022 
-0.3415 325.658 5.06537 7435.9 14 348.138 116.824 
-0.3407 411.904 7.77976 7390.15 17 250.965 0 
-0.3399 271.239 8.13649 7490.67 27 408.41 161.715 
-0.3391 278.028 6.48678 7437.92 21 305.788 98.2313 
-0.3383 374.289 11.6436 7374.16 28 378.018 177.187 
-0.3375 181.461 3.4273 7358.7 17 244.47 0 
-0.3367 302.13 6.37778 7317.46 19 284.56 0 
-0.3359 311.285 6.57102 7394.96 19 424.551 80.8879 
-0.3351 236.918 4.47475 7463.8 17 342.212 166.01 
-0.3343 342.929 4.953 7412.64 13 498.696 0 
-0.3335 224.313 6.23039 7352.63 25 332.581 73.7654 
-0.3327 289.719 6.11578 7361.95 19 437.923 161.776 
-0.3319 215.336 6.69878 7482.57 28 305.417 89.1941 
-0.3311 348.26 5.03001 7324.41 13 221.611 212.403 
-0.3303 281.718 3.75593 7391.74 12 191.559 93.536 
-0.3295 314.618 5.24319 7401.4 15 221.121 113.351 
-0.3287 284.301 5.05382 7398.53 16 322.741 85.5383 
-0.3279 190.508 4.23316 7321.09 20 298.394 0 
-0.3271 231.082 5.39147 7331.52 21 332.855 155.232 
-0.3263 260.569 7.23743 7445.59 25 378.65 92.1796 
-0.3255 234.031 5.46027 7367.49 21 279.779 0 
-0.3247 166.758 4.26123 7394.62 23 248.136 189.977 
-0.3239 256.739 6.27531 7437.14 22 272.417 76.8802 
-0.3231 250.027 6.38905 7375.63 23 290.837 75.8112 
-0.3223 399.683 8.8811 7416.95 20 208.867 102.065 
-0.3215 274.773 4.57917 7517.04 15 310.481 86.531 
-0.3207 223.4 5.21223 7411.84 21 277.335 77.8293 
-0.3199 357.548 7.94484 7383.6 20 419.316 158.557 
-0.3191 342.421 6.46741 7413.35 17 314.226 83.0049 
-0.3183 282.716 7.85257 7360.51 25 412.025 73.885 
-0.3175 278.88 5.88698 7446.23 19 424.738 0 
-0.3167 183.322 3.66614 7457.58 18 474.036 81.4807 
-0.3159 298.226 3.97601 7358.64 12 340.007 93.536 
-0.3151 294.872 8.84542 7366.09 27 351.444 163.376 
-0.3143 232.445 5.16502 7457.47 20 339.299 158.557 
-0.3135 270.764 6.3173 7479.86 21 328.12 155.659 
-0.3127 246.745 4.93449 7424.79 18 326.586 81.8019 
-0.3119 272.677 6.96782 7375.73 23 270.35 75.8112 
-0.3111 244.362 4.34385 7464.49 16 283.896 110.269 
-0.3103 279.466 5.89934 7381.88 19 291.022 207.046 
-0.3095 211.024 4.45458 7415.18 19 359.059 102.766 
-0.3087 294.507 7.19846 7389.17 22 432.245 131.949 
-0.3079 218.71 2.91589 7455 12 322.025 0 
-0.3071 268.824 5.07737 7393.1 17 354.873 189.573 
-0.3063 253.823 5.07603 7442.34 18 243.49 0 
-0.3055 238.67 6.09884 7388 23 431.141 75.4912 
-0.3047 297.723 4.63085 7346.42 14 286.124 88.5933 
-0.3039 262.491 5.24938 7471.15 18 256.999 81.4807 
-0.3031 313.104 6.26156 7448.12 18 379.913 204.773 
-0.3023 286.66 5.09576 7370.75 16 343.535 0 
-0.3015 307.123 5.11829 7301.15 15 258.3 202.203 
-0.3007 275.808 6.12855 7442.47 20 364.93 158.995 
-0.2999 243.632 5.41359 7378.68 20 269.222 100.052 
-0.2991 230.598 6.14876 7461.72 24 368.43 149.359 
-0.2983 263.264 5.84983 7408.15 20 276.465 78.8022 
-0.2975 354.601 7.4854 7346.36 19 236.864 80.0856 
-0.2967 251.567 7.26687 7376.22 26 338.767 145.587 
-0.2959 432.028 13.4398 7396.51 28 234.817 192.95 
-0.2951 254.822 4.52979 7388.36 16 318.335 110.269 
-0.2943 309.619 5.50388 7488.33 16 352.724 85.5383 
-0.2935 311.713 5.19479 7395.07 15 376.912 0 
-0.2927 212.472 5.42938 7405.86 23 244.483 151.622 
-0.2919 250.535 5.84532 7416.14 21 190.712 98.8171 
-0.2911 200.255 2.89233 7321.48 13 473.537 181.819 
-0.2903 283.573 7.24626 7382.55 23 286.567 151.908 
-0.2895 251.073 3.90526 7379.93 14 472.804 89.7945 
-0.2887 327.615 6.91575 7418.74 19 303.37 80.0856 
-0.2879 287.539 8.94491 7377.86 28 335.318 0 
-0.2871 248.474 2.76059 7432.53 10 385.858 0 
-0.2863 354.316 9.44764 7330.5 24 214.704 0 
-0.2855 242.29 4.57621 7374.27 17 322.977 83.0049 
-0.2847 275.226 5.80984 7424.13 19 366.237 0 
-0.2839 290.223 8.70598 7407.62 27 385.472 90.3722 
-0.2831 175.159 2.72447 7309.66 14 469.586 118.36 
-0.2823 332.035 7.37794 7440.54 20 261.548 257.606 
-0.2815 322.262 9.66706 7406.93 27 272.172 72.1001 
-0.2807 317.074 7.39778 7370.1 21 310.934 0 
-0.2799 171.93 3.05628 7345.14 16 320.922 0 
-0.2791 290.785 8.39976 7382.46 26 272.883 73.1072 
-0.2783 309.573 8.94247 7368.06 26 300.994 146.214 
-0.2775 241.509 3.48817 7407.8 13 298.561 0 
-0.2767 221.406 5.41171 7372.24 22 370.879 153.032 
-0.2759 249.924 5.83108 7339.77 21 377.726 176.646 
-0.2751 317.813 9.53359 7395.81 27 288.985 176.844 
-0.2743 194.394 4.10354 7418.45 19 367.526 203.483 
-0.2735 269.173 5.68207 7415.26 19 282.434 160.171 
-0.2727 224.904 4.24784 7427.22 17 254.218 83.7397 
-0.2719 204.051 5.4409 7369.66 24 340.796 124.289 
-0.2711 357.696 5.9611 7317.26 15 395.927 0 
-0.2703 287.426 6.3867 7403.04 20 342.097 180.656 
-0.2695 260.963 6.6685 7387.58 23 252.869 75.6561 
-0.2687 241.969 5.9143 7341.05 22 284.439 0 
-0.2679 269.143 5.3824 7410.46 18 261.228 81.4807 
-0.2671 328.468 6.93375 7379.17 19 241.297 80.6333 
-0.2663 182.325 3.44362 7454.87 17 311.241 166.01 
-0.2655 251.075 4.74212 7397.42 17 274.373 83.3767 
-0.2647 264.417 6.16921 7375.31 21 282.315 0 
-0.2639 296.167 6.25189 7430.88 19 533.329 80.6333 
-0.2631 231.444 4.6285 7393.33 18 295.982 105.023 
-0.2623 226.844 7.56085 7377.07 30 339.021 0 
-0.2615 216.149 4.56277 7327.16 19 340.432 80.8879 
-0.2607 212.367 4.71886 7456.66 20 408.384 0 
-0.2599 270.357 5.70706 7465.51 19 414.428 160.729 
-0.2591 335.001 7.07165 7491.88 19 309.333 102.032 
-0.2583 209.818 4.42912 7381.23 19 340.918 0 
-0.2575 277.497 5.54949 7394.34 18 291.786 82.1134 
-0.2567 319.99 8.17685 7453.02 23 306.489 151.312 
-0.2559 284.904 8.5464 7375.61 27 330.33 0 
-0.2551 307.245 4.77896 7337.26 14 274.022 88.5933 
-0.2543 322.128 8.58936 7432.13 24 321.325 0 
-0.2535 225.962 5.02096 7468.52 20 361.006 79.4976 
-0.2527 316.053 9.12967 7349.38 26 260.574 238.922 
-0.2519 314.359 10.1285 7482.73 29 227.298 188.886 
-0.2511 224.103 6.47355 7304.84 26 364.233 72.7933 
-0.2503 317.576 7.05667 7463.39 20 302.585 179.752 
-0.4993 341.611 7.97026 7312.65 21 256.945 78.0321 
-0.4985 290.851 7.75538 7405.65 24 280.123 74.6794 
-0.4977 311.106 6.2216 7427.2 18 326.754 81.4807 
-0.4969 341.052 8.33613 7356.31 22 218.643 76.5158 
-0.4961 225.92 5.02002 7384.23 20 272.364 158.091 
-0.4953 402.485 11.1792 7385.75 25 295.149 196.852 
-0.4945 188.534 4.81769 7329.69 23 330.945 151.622 
-0.4937 225.393 5.00832 7351.61 20 340.439 0 
-0.4929 306.195 9.86545 7394.98 29 397.05 318.18 
-0.4921 279.68 9.01116 7348.67 29 266.873 188.886 
-0.4913 295.625 8.868 7461.87 27 357.947 288.724 
-0.4905 232.449 5.16511 7440.36 20 249.307 79.2785 
-0.4897 424.556 9.90547 7313.23 21 254.952 78.0321 
-0.4889 240.992 6.15816 7370.74 23 390.632 95.4641 
-0.4881 329.864 5.49728 7434.76 15 202.49 86.531 
-0.4873 306.951 4.43337 7376.11 13 259.18 91.6271 
-0.4865 350.776 8.18409 7412.85 21 176.971 200.052 
-0.4857 415.268 8.30467 7384.25 18 299.998 163.604 
-0.4849 316.889 5.98518 7348.62 17 268.348 166.753 
-0.4841 271.814 5.43583 7358.25 18 285.823 163.604 
-0.4833 249.49 6.6525 7431.31 24 347.617 74.6794 
-0.4825 326.595 6.1685 7511.08 17 278.187 168.177 
-0.4817 321.155 6.42256 7377.67 18 205.295 82.1134 
-0.4809 357.58 9.53467 7412.47 24 336.149 202.726 
-0.4801 207.039 4.14044 7448.13 18 261.277 185.674 
-0.4793 226.18 3.51806 7387.35 14 323.985 88.5933 
-0.4785 270.89 6.62121 7421.36 22 251.905 173.065 
-0.4777 307.609 5.12638 7402.54 15 318.783 88.0338 
-0.4769 322.898 6.81616 7419.38 19 409.45 184.156 
-0.4761 304.133 9.12322 7359.42 27 243.634 180.744 
-0.4753 330.09 9.90186 7372.77 27 349.515 144.385 
-0.4745 250.246 5.00451 7442.98 18 346.052 206.432 
-0.4737 382.079 9.33893 7336.26 22 185.766 76.7031 
-0.4729 249.396 7.20417 7435.1 26 357.4 72.9075 
-0.4721 288.981 9.31082 7363.03 29 371.387 70.7524 
-0.4713 282.414 5.96157 7428.37 19 322.778 222.445 
-0.4705 290.176 6.12543 7370.64 19 244.264 0 
-0.4697 245.594 6.27576 7313.11 23 362.595 190.928 
-0.4689 247.057 6.31315 7410.36 23 265.42 171.758 
-0.4681 319.007 6.02519 7458.96 17 384.837 189.573 
-0.4673 335.979 4.85262 7263.1 13 275.212 0 
-0.4665 199.259 4.20623 7461.05 19 377.181 80.0856 
-0.4657 253.326 3.9403 7374.96 14 297.077 145.803 
-0.4649 228.503 5.3313 7429.71 21 451.027 155.232 
-0.4641 348.395 8.12853 7367.45 21 370.239 117.326 
-0.4633 202.192 3.81886 7373.15 17 274.281 0 
-0.4625 338.066 4.88277 7474.78 13 267.027 91.6271 
-0.4617 207.607 1.84524 7495.58 8 345.263 111.396 
-0.4609 300.678 6.34712 7363.94 19 415.053 0 
-0.4601 275.889 6.13036 7354.45 20 271.496 79.2785 
-0.4593 242.983 5.66913 7430.31 21 240.009 98.2313 
-0.4585 155.224 3.62159 7422.07 21 405.762 98.2313 
-0.4577 323.333 7.5438 7416.68 21 335.914 0 
-0.4569 271.131 8.7357 7409.01 29 308.03 87.5334 
-0.4561 283.767 5.3596 7480.03 17 332.705 0 
-0.4553 285.696 4.44379 7291.04 14 401.503 89.1941 
-0.4545 219.837 4.39638 7406.81 18 516.898 189.178 
-0.4537 286.277 5.40701 7394.81 17 459.722 0 
-0.4529 246.171 3.82901 7343.36 14 274.908 115.375 
-0.4521 272.095 6.34834 7425.04 21 224.661 177.448 
-0.4513 410.054 10.0227 7369.23 22 343.669 153.406 
-0.4505 363.267 8.47552 7375.45 21 449.406 196.582 
-0.4497 300.327 8.34173 7415.24 25 234.577 73.7654 
-0.4489 321.461 6.42869 7432.02 18 225.853 0 
-0.4481 238.854 3.98056 7372.5 15 214.997 112.106 
-0.4473 265.396 5.30748 7407.5 18 328.39 82.1134 
-0.4465 255.846 4.26375 7405.93 15 377.244 0 
-0.4457 254.707 5.65968 7375.59 20 398.085 79.0455 
-0.4449 286.416 7.0007 7442.55 22 257.774 153.76 
-0.4441 353.737 7.46716 7387.76 19 384.238 80.0856 
-0.4433 197.976 3.07937 7424.55 14 220.846 88.5933 
-0.4425 254.256 2.82484 7387.23 10 355.254 0 
-0.4417 306.517 5.10818 7293.1 15 377.52 138.012 
-0.4409 297.591 9.25761 7397.82 28 342.107 160.232 
-0.4401 313.233 7.30816 7436.93 21 388.301 0 
-0.4393 220.816 3.9253 7408.92 16 223.491 85.1125 
-0.4385 274.932 6.1091 7409.86 20 282.344 0 
-0.4377 234.041 4.16038 7450.38 16 316.997 85.1125 
-0.4369 293.475 6.52112 7450.75 20 350.926 0 
-0.4361 277.645 5.8609 7401.79 19 533.049 102.766 
-0.4353 338.403 7.51943 7330.28 20 262.942 78.8022 
-0.4345 261.261 7.5469 7352.9 26 306.977 72.7933 
-0.4337 233.426 4.14945 7392.16 16 321.96 170.225 
-0.4329 239.239 6.11337 7430.16 23 351.529 203.683 
-0.4321 341.93 7.21792 7413.1 19 302.596 183.131 
-0.4313 327.999 8.01709 7385.06 22 313.411 76.7031 
-0.4305 237.487 5.80475 7401.7 22 382.924 97.0757 
-0.4297 338.947 6.77837 7303.48 18 273.934 206.432 
-0.4289 258.118 4.01483 7385.05 14 242.743 0 
-0.4281 186.689 3.73346 7482.8 18 374.567 0 
-0.4273 296.904 6.92719 7311.34 21 280.575 177.448 
-0.4265 234.105 5.98218 7383.32 23 238.364 95.9469 
-0.4257 244.247 3.79908 7487.59 14 272.735 0 
-0.4249 297.301 7.26674 7462.15 22 302.71 76.8802 
-0.4241 354.687 8.6694 7359.94 22 302.933 76.8802 
-0.4233 258.062 4.58739 7481.55 16 294.394 195.381 
-0.4225 201.501 4.25356 7382.3 19 379.113 103.523 
-0.4217 237.721 3.96168 7408.23 15 290.157 113.351 
-0.4209 256.641 6.8432 7419.65 24 244.819 74.8155 
-0.4201 226.765 4.28299 7424.05 17 303.184 166.753 
-0.4193 283.742 7.88107 7332.47 25 351.505 0 
-0.4185 191.495 4.46785 7396.8 21 362.507 78.0321 
-0.4177 246.733 4.11188 7449.4 15 319.485 88.0338 
-0.4169 301.692 8.04444 7369.25 24 281.013 149.068 
-0.4161 238.265 5.02962 7401.59 19 292.462 102.032 
-0.4153 222.26 4.44483 7411.9 18 289.371 0 
-0.4145 232.335 5.42069 7516.29 21 282.96 155.659 
-0.4137 327.241 5.08999 7390.35 14 326.408 88.5933 
-0.4129 271.92 4.22951 7485.31 14 363.937 253.686 
-0.4121 328.926 7.30886 7378.3 20 255.697 0 
-0.4113 291.422 6.4755 7440.87 20 235.294 0 
-0.4105 244.174 6.51077 7393.53 24 394.396 74.6794 
-0.4097 359.749 9.59251 7465.71 24 451.894 74.6794 
-0.4089 436.592 11.1564 7351.45 23 236.724 75.6561 
-0.4081 196.325 4.1443 7346.65 19 360.051 162.246 
-0.4073 238.479 3.44441 7351.25 13 198.544 0 
-0.4065 347.53 8.10837 7496.3 21 427.55 98.8171 
-0.4057 246.669 4.11081 7393.01 15 296.045 0 
-0.4049 304.873 7.45182 7381.61 22 278.494 77.1923 
-0.4041 304.147 7.4341 7383.07 22 336.686 173.065 
-0.4033 295.661 9.19756 7375.23 28 255.97 0 
-0.4025 248.137 7.71917 7374.38 28 276.33 160.987 
-0.4017 312.553 5.55604 7402.65 16 283.324 85.1125 
-0.4009 325.902 6.51749 7469.64 18 337.914 163.604 
-0.4001 385.164 6.84679 7484.01 16 414.89 193.869 
-0.3993 204.891 3.64221 7357.83 16 328.872 85.1125 
-0.3985 289.401 5.78754 7441.06 18 284.157 0 
-0.3977 331.184 7.35902 7438.39 20 361.428 101.378 
-0.3969 286.296 6.36161 7423.28 20 295.087 179.752 
-0.3961 295.113 7.86902 7408.61 24 424.766 74.5338 
-0.3953 418.008 9.28829 7336.3 20 291.564 158.091 
-0.3945 257.478 3.71881 7311.89 13 418.02 181.819 
-0.3937 269.537 5.98922 7434.6 20 257.881 78.8022 
-0.3929 357.525 9.53319 7329.01 24 268.622 74.8155 
-0.3921 287.251 5.74453 7313.74 18 249.012 0 
-0.3913 250.46 6.67839 7425.1 24 333.235 169.784 
-0.3905 199.808 3.10787 7353.04 14 396.907 0 
-0.3897 349.287 8.14934 7277.52 21 334.245 0 
-0.3889 234.322 4.16538 7399.73 16 246.229 85.5383 
-0.3881 187.811 4.59055 7376.83 22 211.837 98.1572 
-0.3873 222.765 5.69241 7380.38 23 294.47 171.12 
-0.3865 286.337 3.18126 7518.93 10 405.582 0 
-0.3857 263.693 7.61716 7425.47 26 263.053 91.267 
-0.3849 176.928 4.32455 7354.53 22 213.253 173.065 
-0.3841 260.062 6.0676 7365.25 21 341.224 77.6162 
-0.3833 272.397 7.8686 7387.81 26 342.844 72.9075 
-0.3825 280.575 7.16965 7376.53 23 264.819 247.264 
-0.3817 262.906 5.25768 7415.99 18 374.164 104.194 
-0.3809 203.581 3.16655 7435.72 14 386.108 89.1941 
-0.3801 182.49 2.43299 7554.44 12 343.922 0 
-0.3793 273.072 5.76436 7350.77 19 305.379 122.85 
-0.3785 255.335 4.53892 7367.84 16 422.687 84.6795 
-0.3777 356.415 5.93975 7349.5 15 307.315 87.039 
-0.3769 203.083 4.7382 7437.08 21 376.604 198.831 
-0.3761 220.402 3.91794 7274.42 16 220.063 85.9507 
-0.3753 358.11 6.36587 7435.76 16 242.859 0 
-0.3745 283.034 6.91802 7423.64 22 249.496 174.492 
-0.3737 295.314 8.53058 7431.76 26 277.973 91.267 
-0.3729 268.944 5.37842 7385.96 18 379.534 104.194 
-0.3721 172.436 3.25685 7480.73 17 393.844 0 
-0.3713 219.227 4.8713 7434.36 20 437.374 79.2785 
-0.3705 162.78 2.71278 7306.64 15 397.65 0 
-0.3697 278.756 5.88437 7358.22 19 332.365 0 
-0.3689 279.741 5.59436 7418.88 18 422.198 0 
-0.3681 265.142 7.36443 7400.05 25 340.217 135.074 
-0.3673 306.228 6.12405 7426.89 18 324.75 124.63 
-0.3665 262.223 6.40936 7416.62 22 350.072 76.7031 
-0.3657 246.113 3.8281 7386.68 14 294.68 0 
-0.3649 300.173 7.33696 7469.84 22 505.64 153.032 
-0.3641 319.926 8.17521 7324.66 23 332.474 0 
-0.3633 214.208 4.04581 7259.49 17 223.963 0 
-0.3625 287.008 5.73967 7489.66 18 216.261 82.1134 
-0.3617 259.395 6.05204 7442.22 21 291.837 156.787 
-0.3609 257.327 4.86021 7349.36 17 325.802 189.573 
-0.3601 276.692 6.45561 7349.71 21 298.661 98.8171 
-0.3593 347.432 7.72006 7424.61 20 223.94 79.2785 
-0.3585 318.245 6.71795 7445.98 19 413.888 0 
-0.3577 302.129 8.0561 7353.76 24 321.983 221.278 
-0.3569 208.924 5.10661 7372.82 22 424.31 115.841 
-0.3561 252.717 5.33468 7322.5 19 472.434 102.032 
-0.3553 256.883 3.13942 7307.04 11 354.679 228.245 
-0.3545 218.767 5.3472 7484.96 22 191.498 346.08 
-0.3537 225.299 3.75467 7401.23 15 283.593 0 
-0.3529 365.83 8.12889 7305.86 20 253.689 0 
-0.3521 203.742 4.52722 7352.4 20 419.025 79.2785 
-0.3513 255.651 5.96469 7383.11 21 392.873 0 
-0.3505 257.848 5.72948 7435.02 20 337.612 158.091 
-0.3497 342.56 7.99241 7335.01 21 311.043 77.6162 
-0.3489 145.42 2.58503 7373.55 16 259.229 109.19 
-0.3481 325.778 7.60086 7390.7 21 242.897 176.646 
-0.3473 307.911 8.55238 7413.99 25 253.146 73.885 
-0.3465 232.759 5.172 7325.4 20 344.556 152.963 
-0.3457 264.487 5.87701 7365.41 20 422.841 336.408 
-0.3449 238.657 6.36366 7406.91 24 312.903 74.5338 
-0.3441 262.593 6.71016 7453.39 23 313.238 111.882 
-0.3433 220.427 4.40818 7433.82 18 337.803 162.961 
-0.3425 324.377 6.84738 7492.77 19 349.166 103.523 
-0.3417 282.646 4.39634 7471.91 14 282.873 206.018 
-0.3409 226.432 4.77983 7421.75 19 394.585 80.6333 
-0.3401 250.325 7.50913 7298.53 27 300.468 104.194 
-0.3393 241.596 6.44203 7370.8 24 171.76 168.646 
-0.3385 284.622 6.64064 7422.54 21 310.74 98.8171 
-0.3377 239.932 5.86453 7402.16 22 395.837 76.7031 
-0.3369 143.323 2.07004 7333.55 13 247.662 274.822 
-0.3361 246.693 5.20754 7438.51 19 285.675 0 
-0.3353 408.625 9.07979 7369.44 20 228.513 79.2785 
-0.3345 231.916 5.41092 7366.24 21 354.002 78.0321 
-0.3337 251.174 5.58118 7389.08 20 428.176 100.707 
-0.3329 281.443 6.87913 7452.55 22 409.094 96.5489 
-0.3321 279.936 7.15332 7427.24 23 376.139 75.8112 
-0.3313 290.607 6.13452 7360.75 19 409.546 80.3645 
-0.3305 299.43 5.9881 7336.39 18 271.331 0 
-0.3297 315.897 4.56258 7418.94 13 417.638 91.6271 
-0.3289 222.835 6.6845 7357.57 27 272.906 90.0436 
-0.3281 325.681 7.59859 7453.65 21 398.732 156.064 
-0.3273 267.803 4.16547 7346.93 14 429.508 145.803 
-0.3265 256.793 6.56193 7451.02 23 255.645 189.977 
-0.3257 343.178 5.33787 7498.66 14 373.894 89.1941 
-0.3249 336.024 5.22661 7484.49 14 230.594 89.7945 
-0.3241 244.336 5.42924 7380.5 20 305.805 79.0455 
-0.3233 312.713 5.90631 7357.58 17 249.261 166.753 
-0.3225 332.44 6.64826 7271.54 18 429.493 82.1134 
-0.3217 259.494 6.63097 7395.52 23 266.094 201.131 
-0.3209 189.992 3.16628 7340.86 15 200.181 0 
-0.3201 301.504 10.7193 7402.37 32 442.073 84.8966 
-0.3193 280.986 8.74105 7337.4 28 409.822 71.3383 
-0.3185 198.444 4.62997 7384.08 21 405.415 115.375 
-0.3177 267.368 5.34691 7377.24 18 268.466 0 
-0.3169 258.531 5.74465 7410.33 20 321.445 119.96 
-0.3161 304.605 6.76844 7346.44 20 257.84 178.855 
-0.3153 312.577 7.29286 7414.74 21 669.46 161.595 
-0.3145 283.974 6.31 7371.96 20 400.887 157.604 
-0.3137 301.194 5.68875 7289.86 17 314.184 166.753 
-0.3129 294.713 5.56634 7420.95 17 435.701 83.3767 
-0.3121 209.207 5.81083 7370.91 25 382.25 73.7654 
-0.3113 313.231 7.30812 7358.66 21 295.389 98.8171 
-0.3105 326.543 6.16753 7372.31 17 368.159 83.0049 
-0.3097 316.281 7.37927 7317.96 21 270.264 98.2313 
-0.3089 312.454 5.90141 7369.1 17 252.071 0 
-0.3081 234.852 8.87146 7406.52 34 335.488 83.9163 
-0.3073 271.336 6.33065 7384.72 21 310.635 176.646 
-0.3065 207.803 4.38659 7376.82 19 252.917 80.8879 
-0.3057 256.991 3.71178 7489.61 13 372.566 0 
-0.3049 297.079 5.28096 7417.55 16 448.534 0 
-0.3041 236.472 8.6699 7400.44 33 290.61 243.871 
-0.3033 295.763 8.87214 7358.94 27 300.412 90.0436 
-0.3025 253.711 4.22817 7383.79 15 363.968 0 
-0.3017 343.69 9.92798 7460.54 26 413.103 72.9075 
-0.3009 389.2 12.1074 7354.97 28 300.883 71.3383 
-0.3001 204.318 4.76703 7356.25 21 403.838 98.2313 
-0.2993 311.975 7.62541 7449.54 22 308.204 76.8802 
-0.2985 309.724 7.2263 7406.27 21 249.947 77.6162 
-0.2977 248.427 7.72819 7475.64 28 362.597 161.347 
-0.2969 276.395 7.06285 7441.39 23 328.833 0 
-0.2961 286.324 6.68034 7410.25 21 281.984 0 
-0.2953 180.085 3.40133 7449.23 17 410.025 83.7397 
-0.2945 240.424 6.14365 7410.53 23 280.438 0 
-0.2937 219.908 3.90914 7478.1 16 347.178 109.19 
-0.2929 179.119 2.18905 7419.26 11 184.358 0 
-0.2921 303.901 6.75279 7425.37 20 231.688 101.378 
-0.2913 301.371 8.0359 7407.44 24 225.415 125.325 
-0.2905 315.098 7.35168 7460.27 21 402.061 0 
-0.2897 196.271 3.92509 7309.94 18 352.275 81.4807 
-0.2889 317.823 3.88418 7372.44 11 342.553 0 
-0.2881 325.871 6.15483 7352.89 17 366.745 0 
-0.2873 303.169 9.43114 7357.93 28 234.341 192.131 
-0.2865 292.76 6.50524 7435.85 20 231.343 79.4976 
-0.2857 191.161 4.46006 7429.36 21 280.645 155.659 
-0.2849 155.242 3.10457 7407.44 18 331.947 107.683 
-0.2841 234.674 6.25746 7406.89 24 348.884 74.5338 
-0.2833 225.709 5.01533 7466.92 20 327.722 100.707 
-0.2825 312.194 7.28391 7344.01 21 290.395 78.0321 
-0.2817 386.911 9.88691 7381.1 23 304.562 170.48 
-0.2809 300.311 9.00858 7370.86 27 364.49 71.9989 
-0.2801 392.43 13.0799 7453.51 30 320.542 87.039 
-0.2793 147.774 2.13433 7377.81 13 372.26 90.9094 
-0.2785 284.027 3.78671 7398.15 12 330.049 0 
-0.2777 250.47 6.1221 7441.73 22 416.354 212.525 
-0.2769 338.838 6.39973 7366.59 17 215.964 83.7397 
-0.2761 268.186 3.27755 7383.04 11 601.56 0 
-0.2753 180.347 2.20406 7438.57 11 284.017 0 
-0.2745 345.636 9.21619 7390.49 24 269.269 94.4034 
-0.2737 186.37 1.65649 7360.77 8 339.001 0 