ITEM: TIMESTEP
6000
ITEM: NUMBER OF CELLS
5000
ITEM: BOX BOUNDS or pp pp
-0.5 0.5
0 0.0002
-0.5 0.5
ITEM: CELLS xc c_1[1] c_1[2] c_2[1] c_2[2] c_2[3] c_3[1] 
-0.4999 306.21 7.14431 7414.44 21 275.338 117.326 
-0.4991 245.426 5.45345 7292.52 20 361.06 79.0455 
-0.4983 275.44 6.12038 7387.02 20 378.491 79.2785 
-0.4975 270.472 4.50749 7347.79 15 199.836 0 
-0.4967 245.98 4.37262 7483.94 16 443.115 85.1125 
-0.4959 329.787 7.32799 7321.94 20 259.725 101.378 
-0.4951 282.557 7.84816 7409.71 25 358.97 185.143 
-0.4943 248.88 5.25369 7395.73 19 288.017 161.776 
-0.4935 294.241 7.19196 7413.09 22 222.896 97.612 
-0.4927 302.827 8.07471 7390.73 24 425.268 0 
-0.4919 290.568 6.45653 7284.7 20 223.937 0 
-0.4911 265.075 5.59555 7359.96 19 404.828 80.3645 
-0.4903 266.258 7.09963 7386.05 24 254.496 149.359 
-0.4895 325.128 7.22446 7333.29 20 324.061 157.604 
-0.4887 324.007 6.4796 7394.32 18 212.675 104.194 
-0.4879 232.926 6.72842 7290.56 26 257.134 91.6271 
-0.4871 213.968 4.27901 7325.08 18 344.672 0 
-0.4863 271.866 6.64505 7365.93 22 304.981 173.065 
-0.4855 318.797 7.08378 7411.35 20 245.972 79.0455 
-0.4847 370.972 9.89176 7383.43 24 313.607 0 
-0.4839 320.889 9.26936 7441.84 26 356.504 0 
-0.4831 289.884 5.47513 7529.87 17 280.601 83.3767 
-0.4823 293.512 5.54366 7442 17 332.561 83.3767 
-0.4815 217.466 3.86574 7443.03 16 420.942 109.19 
-0.4807 274.054 5.17615 7293.42 17 370.62 83.3767 
-0.4799 208.693 6.26027 7361.4 27 351.689 72.1927 
-0.4791 253.493 5.6327 7339.73 20 311.661 79.0455 
-0.4783 281.324 6.25113 7380.9 20 434.357 0 
-0.4775 279.582 5.28056 7388.76 17 263.792 83.3767 
-0.4767 224.22 6.72604 7389.19 27 218.591 72.1001 
-0.4759 248.756 7.18567 7336.23 26 236.905 119.07 
-0.4751 328.388 4.0133 7468.71 11 382.533 97.612 
-0.4743 319.656 11.7197 7385.58 33 389.335 68.0347 
-0.4735 282.22 7.52524 7403.04 24 281.957 109.904 
-0.4727 221.557 4.67693 7404.19 19 330.4 102.766 
-0.4719 262.952 7.30361 7415.95 25 264.367 73.7654 
-0.4711 226.394 4.27598 7439.3 17 415.193 107.51 
-0.4703 243.016 5.66991 7372.51 21 198.67 77.8293 
-0.4695 285.234 5.07041 7416.94 16 313.438 0 
-0.4687 315.918 5.61585 7378.8 16 270.104 233.747 
-0.4679 422.9 7.5176 7455.82 16 348.932 219.08 
-0.4671 229.303 4.84043 7453.13 19 321.264 80.3645 
-0.4663 235.562 5.49598 7361.3 21 277.504 155.232 
-0.4655 227.917 4.55795 7399.19 18 330.77 81.4807 
-0.4647 291.002 6.46616 7397.49 20 336.28 79.0455 
-0.4639 259.071 5.75665 7473.52 20 253.79 117.785 
-0.4631 248.058 5.78753 7445.55 21 312.683 176.646 
-0.4623 265.647 7.37848 7443.36 25 416.028 73.7654 
-0.4615 305.982 9.51866 7367.12 28 337.282 159.842 
-0.4607 257.468 4.29077 7373.97 15 231.728 87.5423 
-0.4599 254.683 5.3762 7320.11 19 279.753 103.523 
-0.4591 169.453 2.63571 7424.4 14 240.964 206.018 
-0.4583 204.143 4.53612 7415.8 20 209.981 79.2785 
-0.4575 273.363 4.25196 7436.23 14 266.578 0 
-0.4567 185.216 5.14446 7399.67 25 230.809 92.1796 
-0.4559 279.135 5.27212 7412.2 17 278.295 83.3767 
-0.4551 282.965 6.91635 7414.38 22 358.202 173.065 
-0.4543 447.795 4.97509 7402.51 10 364.004 101.378 
-0.4535 286.349 8.27162 7458.51 26 277.435 229.262 
-0.4527 290.21 8.06072 7418.54 25 325.722 92.1796 
-0.4519 232.801 3.3624 7498.55 13 342.406 0 
-0.4511 298.966 7.30745 7471.31 22 290.034 0 
-0.4503 196.444 4.1468 7356.12 19 408.435 80.6333 
-0.4495 265.471 7.07863 7460.65 24 328.301 74.5338 
-0.4487 243.458 6.76215 7340.36 25 229.11 73.9933 
-0.4479 254.107 4.51707 7353.5 16 323.173 85.5383 
-0.4471 236.161 7.08423 7407.7 27 311.43 143.998 
-0.4463 193.172 5.58006 7366.22 26 235.583 73.1891 
-0.4455 277.388 5.54731 7462.15 18 324.829 81.8019 
-0.4447 286.764 7.965 7449.31 25 219.261 73.7654 
-0.4439 229.214 4.83856 7385.74 19 435.693 102.766 
-0.4431 371.488 4.95276 7280.15 12 179.691 93.536 
-0.4423 210.025 3.96681 7409.59 17 239.361 83.3767 
-0.4415 290.76 8.076 7446.68 25 363.477 92.5717 
-0.4407 291.729 7.45468 7418.22 23 290.713 0 
-0.4399 286.064 9.53468 7395.19 30 395.547 157.64 
-0.4391 213.263 4.97573 7431.96 21 317.539 233.438 
-0.4383 262.155 5.53392 7379.41 19 274.804 80.0856 
-0.4375 462.267 9.24456 7539.32 18 384.478 162.961 
-0.4367 214.895 5.25256 7382.91 22 349.45 190.72 
-0.4359 289.632 6.75752 7434.69 21 362.474 156.064 
-0.4351 315.816 6.66667 7459.44 19 282.311 183.131 
-0.4343 289.904 6.76386 7407.65 21 404.574 116.331 
-0.4335 248.421 5.796 7320.39 21 321.644 77.8293 
-0.4327 297.852 6.61838 7417.62 20 248.379 0 
-0.4319 363.547 4.84689 7332.48 12 381.652 0 
-0.4311 290.444 6.77645 7433.94 21 313.597 0 
-0.4303 302.946 6.395 7375.17 19 357.979 121.603 
-0.4295 211.091 4.69052 7389.89 20 240.49 0 
-0.4287 281.867 5.63686 7374.44 18 283.363 82.4105 
-0.4279 261.813 5.23583 7421.68 18 401.935 0 
-0.4271 319.18 6.02846 7339.78 17 357.652 190.887 
-0.4263 253.843 5.35847 7439.01 19 193.733 80.3645 
-0.4255 198.365 3.08542 7462.76 14 397.531 178.388 
-0.4247 297.295 5.61511 7401.72 17 316.43 83.0049 
-0.4239 199.809 3.77385 7438.17 17 260.526 83.0049 
-0.4231 254.17 4.51821 7416.98 16 399.102 0 
-0.4223 267.367 7.1292 7391.92 24 364.313 93.967 
-0.4215 333.31 7.40627 7372.89 20 226.522 0 
-0.4207 270.571 7.51525 7344.03 25 368.49 108.064 
-0.4199 322.443 5.3736 7447.12 15 312.326 87.039 
-0.4191 307.38 8.19611 7410.45 24 314.549 74.9398 
-0.4183 251.804 5.31541 7358.39 19 416.806 0 
-0.4175 266.125 4.13937 7415.49 14 282.573 0 
-0.4167 247.047 5.21499 7310.79 19 298.147 80.6333 
-0.4159 227.78 5.5675 7358.49 22 281.11 76.8802 
-0.4151 263.819 7.91391 7474.78 27 257.433 144.385 
-0.4143 218.856 4.37675 7405.63 18 298.892 104.194 
-0.4135 188.911 3.56802 7392.12 17 318.261 215.02 
-0.4127 298.074 7.94797 7332.64 24 287.467 169.219 
-0.4119 227.595 5.81583 7454.31 23 296.637 75.6561 
-0.4111 369.812 5.75215 7429.58 14 363.663 115.375 
-0.4103 218.551 5.34191 7430.13 22 292.948 76.8802 
-0.4095 234.008 5.9797 7358.02 23 257.975 170.48 
-0.4087 222.279 5.68 7453.42 23 377.869 208.638 
-0.4079 257.578 5.15114 7345.3 18 365.124 81.4807 
-0.4071 272.037 5.44028 7335.03 18 297.744 81.4807 
-0.4063 375.342 7.08919 7468.97 17 261.391 0 
-0.4055 252.992 4.21618 7479.53 15 247.277 173.062 
-0.4047 238.534 4.50526 7413.97 17 350.927 166.01 
-0.4039 277.042 8.92615 7371.13 29 481.685 0 
-0.4031 242.738 5.66341 7372.44 21 244.82 177.448 
-0.4023 157.941 3.50951 7372.96 20 424.281 78.8022 
-0.4015 321.046 5.70702 7450.24 16 267.531 0 
-0.4007 230.62 4.86824 7385.92 19 199.536 183.131 
-0.3999 274.906 7.0248 7314.83 23 261.163 75.9539 
-0.3991 278.46 8.66248 7444.94 28 344.891 284.948 
-0.3983 257.633 3.72106 7409.71 13 220.448 91.6271 
-0.3975 274.136 5.17769 7425.58 17 249.624 83.3767 
-0.3967 265.799 4.42961 7328.38 15 484.935 0 
-0.3959 284.951 6.64829 7435.73 21 453.093 78.0321 
-0.3951 214.505 4.28975 7384.78 18 360.133 185.674 
-0.3943 329.83 8.79473 7405.75 24 278.543 168.646 
-0.3935 290.721 5.81393 7472.14 18 318.353 104.194 
-0.3927 209.631 2.32904 7317.27 10 454.81 200.105 
-0.3919 254.889 5.38055 7366.55 19 298.689 80.0856 
-0.3911 190.327 4.22914 7478.41 20 544.056 178.855 
-0.3903 295.474 7.2221 7422.61 22 458.625 153.406 
-0.3895 317.611 8.82179 7390.27 25 301.292 213.288 
-0.3887 327.088 6.90462 7435.75 19 300.045 80.0856 
-0.3879 308.793 4.45997 7351.7 13 321.351 90.9094 
-0.3871 296.225 5.26579 7386.84 16 434.538 85.1125 
-0.3863 258.351 5.45362 7369.86 19 193.157 161.267 
-0.3855 272.703 6.36254 7448.01 21 356.473 155.232 
-0.3847 248.396 4.13958 7383.61 15 325.81 87.039 
-0.3839 241.26 4.28872 7243.05 16 192.803 0 
-0.3831 324.427 5.76711 7365.26 16 268.883 0 
-0.3823 194.622 3.24344 7511.64 15 457.838 87.5423 
-0.3815 276.262 5.52478 7380.13 18 264.751 0 
-0.3807 272.929 8.1872 7317.64 27 313.49 162.565 
-0.3799 160.638 4.64027 7491.69 26 244.452 0 
-0.3791 287.362 6.06603 7434.91 19 280.438 183.131 
-0.3783 231.765 4.11992 7440.46 16 420.37 129.977 
-0.3775 230.386 6.1431 7492.4 24 409.232 0 
-0.3767 292.787 7.48171 7350.8 23 309.048 95.4641 
-0.3759 173.928 4.05798 7436.26 21 235.921 77.8293 
-0.3751 199.935 3.33198 7379.07 15 203.583 0 
-0.3743 349.682 8.15857 7388.12 21 390.106 175.848 
-0.3735 301.569 8.71126 7428.01 26 349.193 72.7933 
-0.3727 351.984 5.86592 7387.69 15 279.865 200.39 
-0.3719 253.502 4.22468 7338.66 15 359.715 173.062 
-0.3711 302.955 6.05859 7401.87 18 299.249 0 
-0.3703 468.474 6.2458 7359.24 12 238.784 93.536 
-0.3695 284.887 7.27985 7381.11 23 407.063 0 
-0.3687 309.746 4.1296 7309.14 12 171.143 246.686 
-0.3679 299.793 5.99537 7369.94 18 313.879 82.1134 
-0.3671 304.683 9.47823 7349.58 28 291.572 71.4918 
-0.3663 380.925 8.8875 7351.44 21 375.643 0 
-0.3655 250.841 6.96722 7409.74 25 361.872 200.636 
-0.3647 212.093 3.29895 7384.59 14 364.626 178.388 
-0.3639 370.942 9.0667 7439.53 22 477.174 153.76 
-0.3631 157.486 1.7497 7334.27 10 184.68 100.052 
-0.3623 220.994 6.62926 7425.3 27 377.603 144.385 
-0.3615 258.706 5.74853 7344.89 20 316.99 0 
-0.3607 322.208 9.30745 7318.88 26 367.276 72.9075 
-0.3599 189.854 3.58584 7395.88 17 280.222 83.7397 
-0.3591 220.621 4.90227 7400.73 20 395.752 157.604 
-0.3583 319.139 7.44595 7391.38 21 436.445 192.991 
-0.3575 282.371 4.70579 7445.93 15 413.633 135.885 
-0.3567 212.97 4.25905 7416.47 18 417.499 208.388 
-0.3559 259.139 5.18234 7428.14 18 375.759 204.773 
-0.3551 212.747 5.43642 7388.1 23 221.27 94.9884 
-0.3543 256.513 4.55985 7397.23 16 380.62 85.1125 
-0.3535 320.501 7.83381 7438.54 22 322.092 174.492 
-0.3527 312.413 8.33033 7361.23 24 278.294 93.536 
-0.3519 270.466 7.21182 7430.22 24 316.882 168.07 
-0.3511 271.004 5.41963 7493.13 18 419.718 82.4105 
-0.3503 312.083 4.50748 7485.71 13 391.316 91.6271 
-0.3495 337.743 6.37905 7389.37 17 318.25 83.0049 
-0.3487 257.457 6.00682 7474.32 21 281.275 149.025 
-0.3479 305.277 7.80086 7367.91 23 270.773 170.48 
-0.3471 325.819 9.77376 7345.64 27 260.45 104.744 
-0.3463 246.18 3.55564 7486.56 13 365.949 92.3511 
-0.3455 291.717 7.77846 7410.6 24 213.661 168.646 
-0.3447 184.983 4.31592 7423.34 21 236.707 98.8171 
-0.3439 178.189 2.96957 7305.92 15 192.139 198.637 
-0.3431 334.882 7.81326 7455.77 21 408.007 0 
-0.3423 289.172 6.4255 7468.87 20 399.037 219.556 
-0.3415 195.767 4.78503 7297.7 22 390.909 194.151 
-0.3407 376.783 6.2792 7467.5 15 370.828 87.5423 
-0.3399 262.734 7.29757 7424.43 25 366.721 73.7654 
-0.3391 347.052 6.94046 7343.39 18 240.537 162.961 
-0.3383 235.407 3.92312 7434.06 15 253.288 173.062 
-0.3375 317.71 7.05962 7366 20 360.914 79.0455 
-0.3367 271.336 7.23502 7325.58 24 299.395 75.0497 
-0.3359 199.159 2.43397 7405.59 11 386.335 0 
-0.3351 251.942 5.31833 7331.13 19 320.441 0 
-0.3343 239.079 4.51557 7438.3 17 304.333 83.0049 
-0.3335 264.032 6.16024 7416.9 21 408.694 77.6162 
-0.3327 213.78 4.51275 7441.9 19 338.454 104.301 
-0.3319 304.3 7.43781 7394.48 22 378.997 153.406 
-0.3311 243.426 4.59766 7309.71 17 280.359 83.7397 
-0.3303 369.53 9.03221 7416.69 22 281.142 129.376 
-0.3295 314.072 6.62986 7396.52 19 336.144 183.131 
-0.3287 161.596 3.23166 7546.75 18 418.717 0 
-0.3279 212.368 4.01106 7421.02 17 283.085 166.01 
-0.3271 344.792 9.19369 7349.74 24 335.163 0 
-0.3263 206.866 6.89496 7358.13 30 321.968 0 
-0.3255 219.155 5.11318 7429.02 21 277.609 130.916 
-0.3247 212.531 2.59739 7382.08 11 247.213 0 
-0.3239 279.929 5.59812 7408.7 18 355.759 82.1134 
-0.3231 252.243 5.60493 7421.22 20 389.727 79.2785 
-0.3223 274.003 6.6973 7298.88 22 440.834 173.065 
-0.3215 308.383 5.82452 7538.17 17 340.432 166.01 
-0.3207 236.948 5.79158 7278.11 22 317.66 77.0444 
-0.3199 267.054 6.23074 7419.99 21 288.592 77.8293 
-0.3191 236.756 4.73473 7412.44 18 211.107 105.023 
-0.3183 306.56 6.13069 7440.67 18 442.115 81.8019 
-0.3175 303.794 9.45059 7370.57 28 325.914 71.4199 
-0.3167 375.955 10.4423 7418.84 25 300.573 147.531 
-0.3159 299.518 6.32263 7402.92 19 334.941 160.171 
-0.3151 280.964 6.24313 7378.89 20 341.338 79.6983 
-0.3143 265.132 5.59675 7465.26 19 311.539 160.729 
-0.3135 289.31 5.78573 7443.06 18 293.132 0 
-0.3127 271.243 5.12306 7479.18 17 284.915 84.0885 
-0.3119 219.822 5.12875 7458.38 21 272.024 0 
-0.3111 308.252 6.84947 7420.5 20 271.127 0 
-0.3103 183.366 4.07445 7355.99 20 352.177 79.0455 
-0.3095 274.842 5.49639 7319.43 18 321.201 0 
-0.3087 434.926 7.24817 7376.02 15 441.512 87.039 
-0.3079 351.457 7.41903 7392.8 19 253.933 161.267 
-0.3071 247.918 4.40707 7391.84 16 335.291 110.269 
-0.3063 313.906 5.58008 7466.63 16 190.193 170.225 
-0.3055 346.07 9.22777 7411.33 24 369.276 168.646 
-0.3047 247.251 6.59282 7326.48 24 168.137 149.068 
-0.3039 219.253 3.89751 7354.47 16 355.664 84.6795 
-0.3031 240.001 4.79963 7366.37 18 330.691 187.995 
-0.3023 273.697 5.47348 7380.87 18 437.19 104.194 
-0.3015 207.077 4.37127 7388.61 19 255.779 0 
-0.3007 300.497 8.01258 7411.05 24 262.336 93.967 
-0.2999 213.002 2.60314 7424.33 11 547.144 0 
-0.2991 323.147 4.66729 7303.96 13 245.792 0 
-0.2983 302.894 6.39389 7397.92 19 226.426 81.1229 
-0.2975 311.147 8.98794 7380.92 26 329.016 164.174 
-0.2967 293.338 4.23675 7496.56 13 292.513 148.972 
-0.2959 354.732 9.06463 7458.24 23 358.22 0 
-0.2951 205.948 3.43218 7442.28 15 283.105 87.039 
-0.2943 221.654 6.89534 7369.22 28 296.607 174.576 
-0.2935 340.434 6.05166 7353.77 16 353.82 169.359 
-0.2927 265.365 9.43443 7389.73 32 281.741 153.295 
-0.2919 250.969 6.97079 7453.27 25 299.917 73.885 
-0.2911 331.969 6.27 7407.87 17 353.832 0 
-0.2903 262.145 4.07748 7454.89 14 388.778 0 
-0.2895 205.718 4.11403 7362.02 18 247.212 81.8019 
-0.2887 204.485 5.67966 7469.08 25 200.382 200.636 
-0.2879 216.039 3.84037 7341.67 16 326.544 85.5383 
-0.2871 266.208 6.211 7371.85 21 423.174 155.232 
-0.2863 281.836 5.01001 7383.36 16 280.051 85.1125 
-0.2855 207.236 4.14437 7445.97 18 297.611 164.821 
-0.2847 366.098 6.91462 7394 17 291.622 83.7397 
-0.2839 256.185 5.40789 7412.91 19 292.294 80.6333 
-0.2831 389.575 8.22367 7402.4 19 478.045 80.6333 
-0.2823 313.043 6.95593 7365.97 20 334.803 118.849 
-0.2815 259.76 7.50356 7429.88 26 343.957 325.024 
-0.2807 197.423 3.07076 7478.23 14 259.918 89.1941 
-0.2799 277.012 6.77084 7423.08 22 364.409 153.406 
-0.2791 200.288 4.22795 7355.24 19 321.595 105.1 
-0.2783 227.573 5.81527 7416.51 23 427.061 151.622 
-0.2775 223.78 4.22661 7363.63 17 361.648 106.568 
-0.2767 216.037 4.08037 7402.13 17 345.228 192.23 
-0.2759 284.884 5.3807 7366.59 17 220.864 83.7397 
-0.2751 295.861 7.56026 7309.56 23 411.806 0 
-0.2743 307.782 5.81317 7448.62 17 339.645 83.0049 
-0.2735 259.445 5.18846 7415.51 18 361.664 189.178 
-0.2727 368.556 8.18944 7422.69 20 299.162 118.849 
-0.2719 232.104 5.41531 7383.75 21 266.826 0 
-0.2711 262.957 5.55085 7361.31 19 380.983 80.6333 
-0.2703 262.328 5.24613 7370.19 18 197.601 126.038 
-0.2695 321.721 5.36156 7414.13 15 240.835 0 
-0.2687 312.251 8.6729 7346.14 25 301.413 166.852 
-0.2679 352.24 5.47883 7376.17 14 342.567 88.5933 
-0.2671 209.187 5.57786 7359.06 24 280.943 74.6794 
-0.2663 303.597 7.75794 7431.71 23 415.692 75.8112 
-0.2655 309.2 5.83996 7380.46 17 289.089 83.3767 
-0.2647 241.292 5.62967 7458.11 21 348.446 155.659 
-0.2639 305.986 8.4989 7493 25 287.398 73.7654 
-0.2631 413.436 7.34936 7367.3 16 331.227 0 
-0.2623 283.76 8.51209 7453.24 27 319.222 72.1927 
-0.2615 285.142 6.65276 7289.6 21 382.163 155.232 
-0.2607 275.837 4.59691 7311.03 15 307.303 0 
-0.2599 330.767 8.08474 7458.39 22 323.71 76.7031 
-0.2591 297.489 4.95773 7366.37 15 351.794 0 
-0.2583 252.567 4.77032 7424.78 17 471.284 0 
-0.2575 215.705 4.55339 7335.1 19 245.354 0 
-0.2567 326.548 6.16762 7278.7 17 239.359 0 
-0.2559 232.102 6.18888 7396.27 24 258.542 168.646 
-0.2551 275.433 5.50819 7469.45 18 345.898 186.825 
-0.2543 306.349 5.10538 7376.99 15 513.744 175.085 
-0.2535 344.8 8.04467 7460.76 21 186.379 155.182 
-0.2527 299.701 7.32542 7398.89 22 229.892 97.612 
-0.2519 284.559 6.32301 7331.31 20 317.7 100.707 
-0.2511 229.958 4.0878 7484.56 16 496.055 0 
-0.2503 286.386 6.3636 7391.26 20 270.231 79.0455 
-0.4993 275.64 6.43106 7490.27 21 422.29 0 
-0.4985 362.474 8.45703 7405.74 21 308.44 77.8293 
-0.4977 289.089 5.46011 7367.55 17 356.346 106.568 
-0.4969 223.688 5.46747 7335.67 22 352.644 97.612 
-0.4961 228.736 6.35326 7380.5 25 246.377 196.852 
-0.4953 216.527 3.84904 7361.34 16 244.282 0 
-0.4945 247.936 4.13192 7368.02 15 233.862 0 
-0.4937 224.694 4.99278 7337.02 20 362.755 79.0455 
-0.4929 199.863 3.99693 7431.59 18 404.04 0 
-0.4921 278.684 7.12132 7406.16 23 281.458 151.312 
-0.4913 324.6 5.40954 7358.73 15 313.962 0 
-0.4905 239.169 2.65721 7396.81 10 182.138 0 
-0.4897 265.688 4.42777 7363.44 15 320.503 0 
-0.4889 306.418 6.80871 7354.2 20 306.011 78.8022 
-0.4881 222.429 3.45972 7397.49 14 376.107 177.187 
-0.4873 272.584 5.45123 7362.84 18 319.899 0 
-0.4865 223.757 3.97757 7385.47 16 286.182 85.1125 
-0.4857 349.625 8.54568 7354.44 22 456.016 226.307 
-0.4849 214.077 3.56765 7501.9 15 327.162 87.5423 
-0.4841 328.749 10.9574 7435.95 30 282.266 139.871 
-0.4833 268.767 6.2707 7415.46 21 213.471 177.448 
-0.4825 321.583 8.21756 7384.75 23 263.556 113.528 
-0.4817 417.31 11.591 7293.68 25 246.64 147.226 
-0.4809 372.541 8.69189 7472.25 21 263.042 254.425 
-0.4801 275.789 6.74094 7423.69 22 291.65 173.065 
-0.4793 345.92 5.76485 7353.17 15 205.733 156.711 
-0.4785 194.487 3.88942 7381.06 18 177.665 82.1134 
-0.4777 227.257 3.7873 7433.03 15 274.943 0 
-0.4769 250.147 4.16877 7477.15 15 331.932 0 
-0.4761 202.693 3.82832 7434.39 17 376.05 0 
-0.4753 408.523 8.16979 7422.77 18 263.026 81.8019 
-0.4745 304.649 5.41553 7478.58 16 364.514 85.9507 
-0.4737 212.425 4.95617 7406.91 21 368.441 78.3935 
-0.4729 326.488 4.35281 7306.73 12 377.328 94.4034 
-0.4721 297.307 8.58816 7410.15 26 275.127 164.64 
-0.4713 372.175 4.96191 7411.34 12 258.837 125.325 
-0.4705 364.734 8.50974 7469.33 21 205.38 78.2215 
-0.4697 295.519 8.20819 7464.94 25 320.672 93.366 
-0.4689 217.711 5.80513 7351.95 24 305.302 74.5338 
-0.4681 276.728 5.53409 7443.02 18 328.211 105.023 
-0.4673 282.716 5.33975 7431.53 17 444.317 83.3767 
-0.4665 210.114 3.73504 7466.28 16 420.934 111.396 
-0.4657 267.47 4.75463 7420.65 16 212.084 84.6795 
-0.4649 381.225 9.74161 7289.83 23 392.411 173.012 
-0.4641 315.64 8.76703 7380.79 25 324.338 166.337 
-0.4633 253.146 5.62499 7389.45 20 276.877 179.752 
-0.4625 274.09 5.17682 7363.79 17 349.636 0 
-0.4617 204.618 5.2287 7422.61 23 460.286 114.393 
-0.4609 336.145 5.22849 7460.39 14 278.346 0 
-0.4601 317.028 9.15782 7473.84 26 257.526 179.256 
-0.4593 248.158 3.5842 7323.16 13 208.334 0 
-0.4585 248.907 4.97772 7354.27 18 136.284 164.227 
-0.4577 262.523 6.12501 7542.55 21 305.767 117.326 
-0.4569 405.656 9.01382 7488.98 20 340.438 79.4976 
-0.4561 453.701 5.0407 7301.1 10 342.352 100.052 
-0.4553 278.198 7.72708 7359.16 25 326.575 0 
-0.4545 284.389 3.47557 7472.15 11 238.664 96.5489 
-0.4537 337.859 8.25808 7429.63 22 438.035 346.178 
-0.4529 367.839 8.99087 7361.47 22 360.313 207.513 
-0.4521 235.035 6.26708 7494.02 24 437.547 0 
-0.4513 344.954 5.36551 7410.88 14 280.394 88.5933 
-0.4505 311.121 8.98719 7443.8 26 284.596 197.616 
-0.4497 250.439 6.67781 7419.44 24 249.906 94.4034 
-0.4489 273.933 3.65213 7492.04 12 428.136 187.072 
-0.4481 272.412 7.2637 7335.93 24 318.319 123.292 
-0.4473 336.997 8.61144 7417.78 23 339.506 150.982 
-0.4465 266.018 6.20656 7470.89 21 204.565 119.437 
-0.4457 320.757 8.90918 7367.36 25 358.073 0 
-0.4449 282.496 4.08016 7400.27 13 213.129 92.3511 
-0.4441 264.53 6.17185 7329.4 21 345.995 78.0321 
-0.4433 207.813 3.69415 7366.61 16 304.966 0 
-0.4425 265.145 5.59703 7373.94 19 269.776 182.117 
-0.4417 228.573 3.04738 7342.13 12 309.834 123.292 
-0.4409 319.685 5.68281 7405.32 16 158.489 0 
-0.4401 279.233 5.27396 7430.38 17 320.226 126.463 
-0.4393 172.297 2.10567 7403.86 11 450.592 0 
-0.4385 329.937 7.69789 7437.51 21 392.841 100.026 
-0.4377 227.358 6.06236 7293.44 24 309.584 109.904 
-0.4369 341.814 6.07619 7364.5 16 205.988 84.6795 
-0.4361 241.243 3.21631 7362.13 12 352.351 95.2879 
-0.4353 270.468 4.50742 7421.51 15 293.25 133.899 
-0.4345 260.53 6.07852 7404.88 21 393.252 177.448 
-0.4337 319.835 4.61945 7394.16 13 267.927 90.9094 
-0.4329 205.726 4.34274 7304.93 19 458.391 80.0856 
-0.4321 237.242 6.5895 7357.65 25 308.302 201.702 
-0.4313 239.715 4.79389 7370.88 18 453.646 187.995 
-0.4305 227.641 6.32283 7397.27 25 381.817 73.7654 
-0.4297 253.21 6.18905 7397.39 22 280.806 76.7031 
-0.4289 275.393 6.42531 7494.41 21 253.892 0 
-0.4281 235.86 4.97886 7468.66 19 461.186 0 
-0.4273 295.85 6.90258 7414.96 21 275.239 311.267 
-0.4265 177.372 3.74422 7422.42 19 381.101 80.3645 
-0.4257 236.131 5.24691 7467.58 20 344.629 101.378 
-0.4249 259.249 4.60849 7398.73 16 415.41 0 
-0.4241 234.288 3.38387 7259.56 13 312.785 212.403 
-0.4233 294.225 4.90335 7439.74 15 194.82 174.078 
-0.4225 343.449 7.63157 7430.03 20 213.609 157.604 
-0.4217 253.479 6.75887 7375.39 24 421.369 0 
-0.4209 322.936 6.0994 7362.19 17 285.645 252.211 
-0.4201 228.213 4.56387 7403.25 18 241.007 0 
-0.4193 293.657 8.15647 7473.19 25 377.487 0 
-0.4185 219.483 2.19465 7358.58 9 275.336 148.876 
-0.4177 275.815 5.82228 7444.07 19 239.499 200.499 
-0.4169 241.579 4.02598 7297.64 15 306.957 0 
-0.4161 245.124 4.62973 7347.95 17 356.714 190.887 
-0.4153 345.447 8.82735 7387.14 23 376.869 170.48 
-0.4145 227.258 4.2923 7397.13 17 303.548 126.463 
-0.4137 240.799 6.6883 7438.16 25 308.507 108.064 
-0.4129 339.271 7.16179 7249.12 19 312.735 80.3645 
-0.4121 333.759 5.19137 7491.78 14 430.401 226.905 
-0.4113 186.424 4.55665 7378.9 22 403.706 226.452 
-0.4105 246.766 4.11243 7350.29 15 320.896 86.531 
-0.4097 205.331 3.42189 7442.27 15 364.502 200.39 
-0.4089 349.238 9.31224 7397.88 24 402.404 168.07 
-0.4081 194.365 4.53482 7375.13 21 242.689 176.646 
-0.4073 299.169 8.30955 7376.76 25 264.86 0 
-0.4065 281.377 6.56491 7251.17 21 345.89 77.8293 
-0.4057 247.767 5.50548 7434.87 20 378.909 158.995 
-0.4049 184.082 4.4994 7409.11 22 295.756 97.612 
-0.4041 259.403 6.62865 7365.73 23 322.913 0 
-0.4033 258.212 6.02445 7495.25 21 213.211 0 
-0.4025 358.215 7.16371 7478.51 18 316.871 81.8019 
-0.4017 353.898 5.11144 7405.28 13 245.693 91.6271 
-0.4009 236.033 4.72027 7445.86 18 331.038 81.8019 
-0.4001 282.663 6.59491 7404.99 21 365.407 78.0321 
-0.3993 299.534 7.32132 7360.27 22 481.093 76.5158 
-0.3985 228.099 3.80134 7417.2 15 315.175 86.531 
-0.3977 227.738 4.55437 7307.83 18 442.411 185.674 
-0.3969 224.322 5.48298 7418.8 22 306.662 224.722 
-0.3961 216.874 5.30093 7410.36 22 362.353 76.8802 
-0.3953 352.319 10.5687 7316.52 27 352.783 176.844 
-0.3945 209.999 6.53277 7375.66 28 426.238 71.5524 
-0.3937 292.726 7.48015 7326.91 23 296.007 126.733 
-0.3929 314.499 5.59063 7446.01 16 198.859 84.6795 
-0.3921 272.27 5.44494 7379.63 18 398.354 81.4807 
-0.3913 265.155 8.24859 7425.8 28 308.748 160.232 
-0.3905 258.743 4.02456 7443.71 14 281.363 0 
-0.3897 343.304 8.00975 7488.29 21 298.031 0 
-0.3889 319.98 7.11007 7410.9 20 500.981 79.8748 
-0.3881 233.726 2.59674 7387.28 10 330.417 100.052 
-0.3873 295.103 8.52448 7492.93 26 449.203 146.025 
-0.3865 313.716 8.7136 7465.24 25 318.114 185.935 
-0.3857 313.3 6.96165 7396.78 20 355.806 157.604 
-0.3849 208.832 5.5684 7519.56 24 279.244 74.5338 
-0.3841 259.778 5.77236 7355.7 20 203.789 157.604 
-0.3833 207.674 4.38386 7305.05 19 221.897 0 
-0.3825 322.706 8.9633 7404.51 25 284.667 92.5717 
-0.3817 280.994 8.74131 7378.47 28 299.815 71.3383 
-0.3809 371.147 6.18527 7429.18 15 313.574 173.062 
-0.3801 282.496 5.02174 7402.5 16 315.96 110.269 
-0.3793 308.7 9.6032 7388.66 28 326.018 0 
-0.3785 309.992 6.54373 7429.96 19 171.033 182.117 
-0.3777 231.818 3.34821 7430.08 13 365.413 0 
-0.3769 408.877 6.81404 7398.23 15 286.655 202.203 
-0.3761 205.778 2.9721 7470.57 13 438.147 212.403 
-0.3753 287.528 5.75008 7391.72 18 309.71 82.1134 
-0.3745 237.633 5.5443 7392.46 21 406.947 77.6162 
-0.3737 260.398 4.62891 7413.15 16 406.716 0 
-0.3729 268.228 8.34416 7400.45 28 276.813 71.4918 
-0.3721 223.872 5.22325 7351.39 21 437.529 156.064 
-0.3713 291.018 8.72982 7506.29 27 448.311 72.4618 
-0.3705 344.566 7.65637 7415.97 20 247.242 100.707 
-0.3697 254.704 5.94259 7415.87 21 298.923 155.659 
-0.3689 324.537 9.73531 7452.21 27 277.27 90.0436 
-0.3681 338.974 6.77891 7347.85 18 323.263 81.4807 
-0.3673 272.027 6.34677 7361.15 21 368.584 78.0321 
-0.3665 276.512 7.37303 7473.91 24 226.324 94.4034 
-0.3657 286.865 7.33039 7410.96 23 233.59 75.8112 
-0.3649 367.879 9.40057 7440.44 23 271.585 95.4641 
-0.3641 349.4 8.92837 7450.26 23 370.368 125.64 
-0.3633 324.754 6.13373 7531.36 17 269.593 166.01 
-0.3625 190.385 2.32674 7346.32 11 274.828 0 
-0.3617 288.098 2.88074 7422.64 9 322.345 0 
-0.3609 280.758 5.61469 7414.32 18 347.224 246.584 
-0.3601 356.581 10.6965 7425.16 27 298.298 72.1001 
-0.3593 258.322 4.305 7454.48 15 227.859 87.039 
-0.3585 346.441 6.15844 7444 16 319.058 0 
-0.3577 166.818 2.22406 7447.8 12 611.352 123.292 
-0.3569 253.045 5.06048 7475.67 18 313.305 82.1134 
-0.3561 299.156 7.97682 7422.65 24 322.08 74.6794 
-0.3553 304.921 7.453 7358.17 22 400.853 153.032 
-0.3545 372.981 12.0173 7353.31 29 497.829 141.505 
-0.3537 229.397 6.37162 7491.68 25 270.262 166.852 
-0.3529 204.835 4.32394 7396.61 19 310.508 80.8879 
-0.3521 279.742 8.08076 7384.77 26 306.11 0 
-0.3513 220.322 4.16129 7444.9 17 296.168 127.977 
-0.3505 323.041 7.89589 7480.69 22 362.043 76.5158 
-0.3497 259.497 6.63103 7438.45 23 268.893 96.436 
-0.3489 218.525 5.58406 7431.24 23 325.503 171.758 
-0.3481 311.758 9.69833 7446.08 28 368.92 71.4199 
-0.3473 274.33 5.18135 7382.09 17 283.549 83.3767 
-0.3465 292.44 7.47284 7362.41 23 204.298 170.48 
-0.3457 207.905 3.92677 7402.37 17 338.734 189.573 
-0.3449 266.785 4.14965 7440.65 14 199.391 267.525 
-0.3441 263.153 9.64813 7393.88 33 299.09 84.4205 
-0.3433 190.402 5.50004 7397.42 26 259.161 145.587 
-0.3425 307.866 5.81477 7372.69 17 414.259 0 
-0.3417 266.074 6.20787 7434.18 21 343.054 77.6162 
-0.3409 199.242 3.32042 7424.66 15 311.177 86.531 
-0.3401 316.596 8.44185 7432.29 24 333.568 149.068 
-0.3393 294.893 6.225 7413.31 19 255.629 80.0856 
-0.3385 320.034 6.75571 7448.52 19 278.018 0 
-0.3377 263.605 5.56453 7551.93 19 296.019 0 
-0.3369 235.906 4.97983 7400.24 19 458.678 142.393 
-0.3361 232.777 5.94824 7394.51 23 360.549 0 
-0.3353 290.532 7.1013 7318.22 22 219.884 76.5158 
-0.3345 236.192 7.61 7431.89 29 278.042 191.146 
-0.3337 237.592 6.59922 7305.97 25 341.501 73.885 
-0.3329 319.147 7.44615 7433.53 21 254.874 0 
-0.3321 346.067 6.53628 7442.61 17 371.335 0 
-0.3313 216.972 6.26756 7355.91 26 408.931 145.587 
-0.3305 228.84 4.83067 7369.59 19 368.513 80.6333 
-0.3297 294.868 5.56927 7473.32 17 306.909 0 
-0.3289 326.859 9.44181 7498.91 26 372.018 178.544 
-0.3281 342.755 6.09291 7456.33 16 351.716 84.6795 
-0.3273 316.951 7.39492 7481.43 21 393.298 155.232 
-0.3265 245.254 4.90467 7418.04 18 339.403 81.8019 
-0.3257 308.029 8.21343 7402.44 24 364.799 149.359 
-0.3249 467.418 8.82826 7374.57 17 383.553 355.529 
-0.3241 266.153 4.73121 7403.6 16 451.812 170.225 
-0.3233 264.488 2.93851 7259.99 10 375.315 100.052 
-0.3225 373.754 7.05921 7417.87 17 307.834 355.529 
-0.3217 183.457 2.64971 7384.38 13 223.715 92.3511 
-0.3209 251.156 7.81308 7428.48 28 358.546 71.3383 
-0.3201 225.356 5.25787 7425.04 21 346.568 115.375 
-0.3193 215.309 3.58818 7435.76 15 357.399 0 
-0.3185 264.661 7.05704 7407.26 24 307.423 74.6794 
-0.3177 306.073 7.48115 7344.74 22 387.516 0 
-0.3169 260.643 6.37073 7410.49 22 288.844 153.032 
-0.3161 257.728 6.58583 7341.4 23 379.416 150.982 
-0.3153 165.236 2.57013 7390.07 14 516.456 0 
-0.3145 272.417 4.84257 7434.68 16 383.586 170.225 
-0.3137 300.246 8.33948 7437.64 25 292.083 165.816 
-0.3129 249.199 4.7067 7464.91 17 290.894 83.3767 
-0.3121 260.175 5.49212 7504.9 19 321.421 80.0856 
-0.3113 297.667 6.94498 7466.19 21 258.614 156.064 
-0.3105 315.742 6.31432 7424.95 18 324.718 105.023 
-0.3097 263.787 5.2753 7483.33 18 298.359 185.674 
-0.3089 128.818 1.57431 7522.9 11 350.011 98.7099 
-0.3081 358.956 5.9821 7460.81 15 166.757 0 
-0.3073 299.866 5.99682 7464.84 18 318.41 163.604 
-0.3065 207.79 6.92574 7381.89 30 269.504 139.997 
-0.3057 224.506 6.98405 7337.21 28 353.808 71.4199 
-0.3049 263.358 6.43711 7459.33 22 327.479 76.5158 
-0.3041 326.038 9.05584 7362.33 25 307.924 0 
-0.3033 240.553 6.4142 7443.28 24 287.377 74.8155 
-0.3025 308.004 6.50177 7391.39 19 289.129 80.6333 
-0.3017 243.992 6.77698 7345.64 25 284.751 92.5717 
-0.3009 298.779 8.96262 7427.02 27 278.574 72.1001 
-0.3001 204.892 4.0975 7391.72 18 318.54 81.8019 
-0.2993 247.293 6.04444 7375.53 22 315.759 76.8802 
-0.2985 263.444 7.0246 7437.41 24 256.276 0 
-0.2977 276.731 4.91924 7398.77 16 327.95 85.9507 
-0.2969 284.346 6.63418 7504.43 21 210.335 98.8171 
-0.2961 199.196 4.2049 7431.16 19 333.635 200.499 
-0.2953 261.549 4.06819 7370.77 14 280.082 0 
-0.2945 186.15 3.30906 7374.56 16 384.45 169.359 
-0.2937 260.941 6.08812 7410.23 21 372.001 98.2313 
-0.2929 297.176 5.94303 7424.02 18 206.009 0 
-0.2921 313.604 9.05891 7368.52 26 217.025 73.0127 
-0.2913 184.671 2.46208 7438.62 12 436.738 0 
-0.2905 198.773 4.8585 7403.02 22 302.039 76.5158 
-0.2897 286.202 5.40559 7318.64 17 330.529 190.887 
-0.2889 257.094 5.99837 7364.52 21 291.13 177.448 
-0.2881 225.919 3.76499 7365.85 15 221.782 86.531 
-0.2873 198.125 3.96218 7494.33 18 254.116 0 
-0.2865 255.404 6.24268 7382.93 22 377.014 76.5158 
-0.2857 333.309 9.62813 7340.09 26 271.879 72.7933 
-0.2849 227.043 4.54048 7297.73 18 247.692 0 
-0.2841 299.184 8.64236 7334.87 26 364.392 91.6271 
-0.2833 239.476 4.52306 7380.55 17 214.459 83.3767 
-0.2825 221.189 7.6181 7450.15 31 370.561 69.2875 
-0.2817 267.65 6.83937 7408.01 23 228.473 172.39 
-0.2809 282.222 5.33041 7390.49 17 328.356 83.3767 
-0.2801 325.394 5.7843 7355.09 16 257.283 171.077 
-0.2793 274.316 5.79064 7399.39 19 374.737 0 
-0.2785 212.742 2.83632 7406.06 12 164.893 266.598 
-0.2777 313.536 10.102 7364.87 29 305.929 0 
-0.2769 244.663 8.15475 7359.24 30 253.955 157.038 
-0.2761 273.536 4.86246 7409.5 16 416.181 85.1125 
-0.2753 323.549 6.47043 7256.32 18 492.211 81.8019 