ITEM: TIMESTEP
2000
ITEM: NUMBER OF CELLS
5000
ITEM: BOX BOUNDS or pp pp
-0.5 0.5
0 0.0002
-0.5 0.5
ITEM: CELLS xc c_1[1] c_1[2] c_2[1] c_2[2] c_2[3] c_3[1] 
-0.4999 226.578 4.78291 7414.74 19 251.039 102.766 
-0.4991 245.718 5.18694 7381.91 19 318.126 183.131 
-0.4983 298.979 7.63993 7447.37 23 322.637 190.928 
-0.4975 330.763 8.45212 7394.68 23 244.333 95.4641 
-0.4967 199.832 3.55228 7413.8 16 283.822 167.178 
-0.4959 218.307 4.85086 7344.25 20 316.014 158.557 
-0.4951 341.603 6.07243 7428.98 16 302.631 84.6795 
-0.4943 325.007 8.66614 7432.66 24 353.713 168.07 
-0.4935 314.921 9.79673 7358.41 28 272.488 177.787 
-0.4927 244.029 7.04914 7408.56 26 244.735 164.174 
-0.4919 339.19 9.798 7402.57 26 296.857 72.7933 
-0.4911 253.48 5.3508 7480.18 19 363.339 80.3645 
-0.4903 346.123 5.76824 7287.79 15 314.024 87.5423 
-0.4895 329.558 6.95676 7382.49 19 245.569 160.729 
-0.4887 310.506 8.62444 7322.95 25 206.065 93.366 
-0.4879 302.505 8.73831 7414.46 26 249.716 328.302 
-0.4871 325.195 6.50336 7429.92 18 321.635 0 
-0.4863 248.485 5.79749 7385.32 21 308.605 78.2215 
-0.4855 381.004 6.77284 7383.79 16 297.272 109.19 
-0.4847 295.65 6.89792 7326.22 21 311.449 254.425 
-0.4839 223.984 5.22585 7408.8 21 382.708 77.6162 
-0.4831 287.272 5.42579 7350.02 17 255.464 106.568 
-0.4823 278.932 5.57818 7482.7 18 445.603 0 
-0.4815 177.046 3.93402 7412.19 20 327.962 179.752 
-0.4807 199.525 4.21184 7416.6 19 293.042 102.766 
-0.4799 285.718 5.39644 7409.1 17 243.414 83.3767 
-0.4791 177.888 1.97637 7447.92 10 222.281 100.052 
-0.4783 349.032 7.75562 7371.66 20 346.604 196.588 
-0.4775 320.107 11.025 7524.51 31 282.269 224.691 
-0.4767 322.103 9.30444 7471.72 26 331.427 0 
-0.4759 231.056 5.39086 7423.9 21 296.075 155.659 
-0.4751 187.257 2.91264 7462.02 14 357.751 138.311 
-0.4743 298.273 9.27884 7435.86 28 350.992 0 
-0.4735 308.925 9.95342 7421.38 29 291.203 141.236 
-0.4727 263.659 7.61617 7293.41 26 368.001 119.07 
-0.4719 200.128 3.77988 7404.89 17 369.12 0 
-0.4711 338.439 7.89624 7493.4 21 353.811 78.0321 
-0.4703 211.208 4.22382 7409.09 18 366.992 185.674 
-0.4695 259.701 6.05919 7455.34 21 250.736 176.646 
-0.4687 398.574 8.85645 7444.01 20 399.251 199.238 
-0.4679 221.623 5.17076 7444.99 21 331.943 177.448 
-0.4671 319.89 6.75266 7371.38 19 279.815 184.156 
-0.4663 211.806 2.58853 7342.25 11 299.998 0 
-0.4655 270.686 6.01473 7359.46 20 341.12 100.052 
-0.4647 206.351 5.96076 7449.05 26 235.949 197.616 
-0.4639 307.657 7.51989 7391.78 22 327.714 0 
-0.4631 292.758 5.20414 7366.05 16 383.771 0 
-0.4623 229.92 3.57624 7359.21 14 339.718 89.7945 
-0.4615 296.257 9.21611 7392.1 28 258.821 160.987 
-0.4607 250.932 6.13339 7405.87 22 396.813 97.612 
-0.4599 278.397 7.73261 7441.89 25 299.698 147.273 
-0.4591 322.255 7.16062 7402.04 20 342.659 0 
-0.4583 308.403 9.25132 7362.26 27 329.928 162.144 
-0.4575 362.539 7.65296 7308.51 19 350.582 0 
-0.4567 424.131 8.95314 7326.69 19 302.028 102.032 
-0.4559 247.445 5.49833 7433.14 20 361.271 79.0455 
-0.4551 332.556 7.02005 7427.33 19 500.101 80.6333 
-0.4543 336.664 5.98465 7403.43 16 311.115 84.6795 
-0.4535 292.319 5.8459 7500.49 18 293.874 164.227 
-0.4527 324.098 6.48141 7342.98 18 227.045 81.8019 
-0.4519 349.381 7.3752 7359.6 19 453.514 160.729 
-0.4511 198.176 4.18336 7433.31 19 355.731 183.131 
-0.4503 313.152 3.47918 7472.93 10 254.889 101.378 
-0.4495 220.537 5.63547 7395.85 23 305.533 75.6561 
-0.4487 258.204 5.73738 7466.13 20 312.767 0 
-0.4479 269.036 7.47259 7466.61 25 369.586 92.9674 
-0.4471 197.954 5.49826 7384.3 25 260.882 92.5717 
-0.4463 226.273 4.77647 7461.88 19 233.769 120.413 
-0.4455 250.797 5.57279 7363.37 20 278.697 196.588 
-0.4447 305.961 5.77879 7464.55 17 254.477 108.49 
-0.4439 310.108 5.85711 7312.95 17 398.594 0 
-0.4431 318.723 6.72803 7394.12 19 263.835 80.3645 
-0.4423 194.512 3.2416 7460.02 15 375.726 0 
-0.4415 301.316 7.69965 7481.92 23 389.13 94.9884 
-0.4407 225.351 4.00591 7401.6 16 340.522 85.5383 
-0.4399 322.199 6.80141 7254.8 19 402.575 102.032 
-0.4391 279.526 4.03727 7352.08 13 369.131 91.6271 
-0.4383 265.338 6.1907 7396.6 21 295.066 176.646 
-0.4375 243.271 4.59473 7489.61 17 243.113 84.0885 
-0.4367 297.722 8.26937 7385.59 25 268.633 109.423 
-0.4359 268.364 4.77052 7364.86 16 373.215 85.1125 
-0.4351 189.434 4.20929 7442.32 20 309.351 79.0455 
-0.4343 205.2 3.87568 7473.62 17 241.363 106.568 
-0.4335 230.988 4.36275 7354.29 17 322.344 0 
-0.4327 251.803 6.15468 7366.58 22 292.017 76.8802 
-0.4319 302.142 7.04939 7394.13 21 341.103 77.8293 
-0.4311 312.21 5.20307 7418.89 15 417.065 0 
-0.4303 292.294 7.79384 7421.72 24 327.766 0 
-0.4295 238.6 5.30178 7419.28 20 365.642 158.557 
-0.4287 307.638 9.57016 7410.8 28 245.416 159.842 
-0.4279 234.592 3.90954 7389.65 15 372.03 0 
-0.4271 413.578 10.5683 7402.84 23 302.501 75.9539 
-0.4263 190.826 2.54413 7273.52 12 321.655 0 
-0.4255 289.134 6.10342 7387 19 312.754 160.729 
-0.4247 335.551 8.57448 7428.48 23 268.149 75.6561 
-0.4239 240.244 4.53756 7422.19 17 313.681 83.0049 
-0.4231 249.029 6.36354 7456.3 23 336.041 0 
-0.4223 300.545 6.0104 7359.42 18 283.16 164.227 
-0.4215 248.614 5.24808 7491.63 19 296.938 80.0856 
-0.4207 264.106 5.28167 7427.17 18 233.795 0 
-0.4199 295.202 6.5595 7472.5 20 318.68 79.2785 
-0.4191 321.826 6.79353 7418.7 19 499.915 237.936 
-0.4183 297.59 5.95131 7502.86 18 349.291 0 
-0.4175 397.19 11.9147 7376.62 27 341.805 144.385 
-0.4167 272.824 5.15291 7391.57 17 277.775 106.568 
-0.4159 266.847 5.04001 7439.04 17 355.228 83.0049 
-0.4151 283.695 4.41267 7370.38 14 210.108 88.5933 
-0.4143 263.772 6.44723 7432.47 22 233.596 98.1572 
-0.4135 311.363 6.9186 7429.82 20 237.623 158.557 
-0.4127 335.706 5.59464 7326.95 15 273.596 0 
-0.4119 197.838 5.27523 7450.73 24 307.817 205.042 
-0.4111 244.432 3.53038 7524.66 13 315.065 90.9094 
-0.4103 256.888 6.27897 7379.71 22 304.081 0 
-0.4095 246.417 6.02303 7304.4 22 238.405 77.0444 
-0.4087 300.057 7.33412 7337.85 22 374.855 190.72 
-0.4079 337.503 9.37431 7376.39 25 340.721 147.722 
-0.4071 225.554 2.75654 7523.96 11 503.546 0 
-0.4063 186.733 3.52689 7408.85 17 415.955 168.177 
-0.4055 230.831 6.15497 7395.02 24 243.651 74.9398 
-0.4047 232.173 4.12718 7346.07 16 364.779 85.1125 
-0.4039 302.065 6.0408 7411.4 18 404.37 0 
-0.4031 307.706 8.54666 7349.36 25 289.668 73.885 
-0.4023 231.171 5.65037 7440.31 22 354.217 226.452 
-0.4015 316.827 5.98401 7367.25 17 246.985 106.568 
-0.4007 329.014 8.40745 7365.68 23 383.207 95.4641 
-0.3999 224.166 4.2339 7440.29 17 378.547 83.7397 
-0.3991 307.595 6.49313 7327.76 19 329.324 161.267 
-0.3983 192.026 2.98682 7276.93 14 205.51 115.375 
-0.3975 302.925 8.07733 7399.46 24 191.485 168.07 
-0.3967 325.37 6.50686 7434.18 18 269.711 105.023 
-0.3959 314.435 7.68556 7359.68 22 302.572 173.779 
-0.3951 261.145 5.22246 7417.91 18 471.532 162.961 
-0.3943 188.125 4.80723 7320.93 23 329.526 75.8112 
-0.3935 277.884 5.86595 7390.12 19 334.394 80.0856 
-0.3927 253.694 3.94602 7361.79 14 274.791 116.824 
-0.3919 317.22 10.2207 7456.33 29 308.292 357.366 
-0.3911 238.222 6.88138 7392.81 26 319.067 0 
-0.3903 265.897 7.09 7364 24 287.498 149.359 
-0.3895 223.796 4.97283 7391.47 20 204.483 237.085 
-0.3887 289.493 7.71917 7413.82 24 423.786 93.967 
-0.3879 336.349 8.96855 7454.49 24 312.675 94.4034 
-0.3871 192.683 5.78 7303.46 27 278.509 176.844 
-0.3863 336.169 7.84329 7417.94 21 199.819 98.8171 
-0.3855 269.525 7.48617 7353.47 25 440.328 185.143 
-0.3847 195.415 2.60532 7488.86 12 366.413 187.072 
-0.3839 198.456 2.64586 7350.05 12 293.418 93.536 
-0.3831 379.468 8.43191 7355.76 20 263.139 102.767 
-0.3823 235.547 3.14037 7416.89 12 297.756 93.536 
-0.3815 260.075 8.3795 7369.4 29 295.475 138.175 
-0.3807 230.931 4.36166 7264.9 17 324.279 247.983 
-0.3799 316.996 5.98721 7378.71 17 343.915 83.3767 
-0.3791 321.354 8.92577 7529.27 25 261.352 92.1796 
-0.3783 307.551 11.6176 7404.93 34 375.927 185.585 
-0.3775 263.802 7.32723 7361.81 25 282.142 185.935 
-0.3767 259.03 8.34584 7438.97 29 267.907 141.077 
-0.3759 296.75 6.26421 7433.56 19 297.981 0 
-0.3751 258.149 4.30213 7390.56 15 363.912 0 
-0.3743 326.999 7.99265 7250.01 22 334.145 154.089 
-0.3735 243.66 4.60208 7349.74 17 265.622 190.887 
-0.3727 276.43 5.22102 7401.6 17 370.99 166.01 
-0.3719 244.045 4.33822 7421.67 16 358.358 170.225 
-0.3711 367.46 11.4311 7420.27 28 363.748 71.3383 
-0.3703 227.184 4.0385 7395.72 16 255.946 85.1125 
-0.3695 221.937 4.19179 7434.01 17 254.831 83.0049 
-0.3687 265.804 7.67814 7403.31 26 332.801 73.1072 
-0.3679 286.786 7.96562 7447.95 25 211.763 240.69 
-0.3671 205.583 4.11131 7324.17 18 256.961 163.604 
-0.3663 277.422 6.47264 7444.66 21 343.288 198.831 
-0.3655 275.719 5.82024 7437.8 19 337.225 102.032 
-0.3647 241.459 4.29224 7432.98 16 352.26 111.396 
-0.3639 245.374 6.27015 7330.8 23 252.282 96.9302 
-0.3631 386.738 7.73411 7366.51 18 404.706 208.388 
-0.3623 345.899 8.0703 7372.49 21 307.44 77.8293 
-0.3615 186.769 2.49004 7352.29 12 342.629 123.292 
-0.3607 261.956 6.69389 7425.55 23 300.206 0 
-0.3599 225.133 4.50229 7379.02 18 199.879 0 
-0.3591 194.21 2.37348 7448.14 11 312.77 195.224 
-0.3583 254.224 3.67182 7375.95 13 276.532 120.776 
-0.3575 142.927 2.22312 7404.08 14 255.198 0 
-0.3567 256.301 5.12559 7361.45 18 318.804 208.388 
-0.3559 214.449 5.71816 7422.95 24 286.705 0 
-0.3551 242.794 4.04624 7391.44 15 535.139 0 
-0.3543 307.404 6.83063 7420.04 20 329.223 119.96 
-0.3535 219.114 5.84255 7478.84 24 238.212 74.9398 
-0.3527 284.148 7.89233 7433.35 25 253.363 73.7654 
-0.3519 243.974 4.87906 7370.06 18 325.092 0 
-0.3511 287.246 7.9784 7351.18 25 532.079 166.852 
-0.3503 227.424 4.29542 7454.72 17 314.436 106.568 
-0.3495 383.472 11.9292 7333.28 28 326.118 143.105 
-0.3487 235.067 7.57374 7336.89 29 343.021 141.38 
-0.3479 283.064 6.28979 7423.36 20 283.615 0 
-0.3471 239.138 3.71961 7405.98 14 305.069 89.7945 
-0.3463 300.217 7.33802 7564.21 22 460.084 97.0757 
-0.3455 279.331 6.20683 7344.03 20 243.502 79.0455 
-0.3447 267.211 3.56251 7416.65 12 183.99 125.325 
-0.3439 297.377 10.9029 7381.65 33 226.721 136.208 
-0.3431 201.559 4.03085 7495.14 18 385.586 0 
-0.3423 271.264 6.93172 7375.81 23 284.554 186.589 
-0.3415 261.187 5.80367 7330.64 20 204.358 0 
-0.3407 293.466 3.26046 7448.65 10 338.282 100.052 
-0.3399 234.523 4.42951 7400.82 17 382.522 129.58 
-0.3391 250.526 3.06173 7449.31 11 185.679 0 
-0.3383 250.354 5.56297 7319.24 20 331.887 150.961 
-0.3375 321.06 6.77736 7399.68 19 312.813 0 
-0.3367 329.906 5.86451 7520.64 16 278.605 109.19 
-0.3359 255.626 5.96411 7459.35 21 330.458 176.646 
-0.3351 217.547 3.86719 7317.68 16 205.214 170.225 
-0.3343 224.343 4.48649 7370.87 18 349.498 126.038 
-0.3335 329.339 8.04983 7399.89 22 435.428 76.8802 
-0.3327 296.981 5.60918 7264.55 17 326.761 83.3767 
-0.3319 302.497 8.0659 7446.35 24 387.957 260.222 
-0.3311 355.482 5.9242 7430.19 15 293.894 87.5423 
-0.3303 179.3 4.18332 7431.14 21 350.119 176.646 
-0.3295 247.317 4.39638 7359.74 16 301.991 195.381 
-0.3287 244.735 6.25382 7432.09 23 159.951 263.145 
-0.3279 280.146 7.78118 7439.9 25 386.382 0 
-0.3271 273.615 6.99181 7390.3 23 264.536 95.4641 
-0.3263 307.174 6.14297 7397.72 18 327.947 162.961 
-0.3255 278.624 5.88158 7365.53 19 304.776 80.3645 
-0.3247 220.46 5.38858 7384.88 22 303.577 226.307 
-0.3239 134.134 1.34123 7349.19 9 300.461 107.683 
-0.3231 307.609 5.46814 7423.99 16 358.433 85.1125 
-0.3223 312.105 6.9351 7462.8 20 271.558 79.2785 
-0.3215 368.748 5.73561 7424.43 14 355.434 177.187 
-0.3207 307.991 6.50149 7475.99 19 207.004 80.8879 
-0.3199 336.697 5.61115 7426.13 15 388.06 0 
-0.3191 201.732 4.93082 7389.02 22 361.995 0 
-0.3183 279.52 7.45326 7400.94 24 291.263 0 
-0.3175 304.024 7.09331 7403.76 21 176.235 0 
-0.3167 273.704 6.68998 7339.16 22 232.198 154.385 
-0.3159 212.096 4.4772 7443.77 19 236.169 0 
-0.3151 298.811 7.30366 7457.14 22 272.174 174.492 
-0.3143 168.478 4.30518 7400.66 23 334.087 187.538 
-0.3135 269.46 4.79001 7412.05 16 418.291 110.269 
-0.3127 263.983 3.51948 7237.12 12 266.984 93.536 
-0.3119 204.018 4.08003 7345.91 18 194.999 162.961 
-0.3111 235.146 4.70252 7399.74 18 242.717 81.4807 
-0.3103 366.606 10.5899 7438.93 26 261.344 0 
-0.3095 168.333 3.17936 7343.59 17 467.45 83.3767 
-0.3087 237.255 5.53549 7424.08 21 360.993 99.4156 
-0.3079 289.435 6.10977 7307.19 19 242.191 0 
-0.3071 324.673 5.77148 7526.55 16 295.801 0 
-0.3063 316.884 5.28096 7391.13 15 351.886 0 
-0.3055 289.298 7.39255 7404.3 23 284.975 111.882 
-0.3047 507.092 9.01421 7361.87 16 324.979 169.359 
-0.3039 297.998 8.60812 7412.34 26 367.45 73.1072 
-0.3031 192.144 3.62908 7389.38 17 350.089 166.753 
-0.3023 278.256 5.87379 7381.48 19 212.432 160.171 
-0.3015 305.904 4.07838 7521.55 12 319.062 0 
-0.3007 317.651 7.76415 7416.68 22 365.967 96.5489 
-0.2999 218.33 5.57907 7461.28 23 209.944 75.9539 
-0.2991 276.892 8.61369 7449.16 28 303.923 142.497 
-0.2983 275.521 7.34662 7461.88 24 394.519 0 
-0.2975 304.853 5.75785 7410.85 17 244.127 211.354 
-0.2967 185.806 2.47721 7405.98 12 374.722 188.807 
-0.2959 282.099 7.20859 7399.75 23 364.048 171.12 
-0.2951 249.744 5.27193 7527.63 19 342.814 219.17 
-0.2943 253.528 4.50679 7422.84 16 430.925 0 
-0.2935 210.503 5.84682 7410.37 25 312.454 166.852 
-0.2927 251.435 5.02828 7402.7 18 335.983 0 
-0.2919 207.779 4.61693 7303.22 20 492.566 78.8022 
-0.2911 273.176 6.98059 7440.42 23 270.223 208.638 
-0.2903 347.451 5.40435 7413.8 14 180.777 0 
-0.2895 298.568 5.63915 7352.04 17 326.606 0 
-0.2887 215.799 5.27464 7402.41 22 364.684 76.5158 
-0.2879 315.371 6.65729 7317.86 19 363.586 160.729 
-0.2871 338.737 6.02149 7378.45 16 372.017 171.901 
-0.2863 370.35 9.46371 7365.73 23 327.398 75.8112 
-0.2855 285.718 8.57083 7393.84 27 339.306 178.156 
-0.2847 259.321 6.33843 7416.65 22 314.54 211.093 
-0.2839 269.147 6.27957 7384.41 21 349.455 98.2313 
-0.2831 277.979 9.57403 7361 31 266.201 85.8159 
-0.2823 327.378 9.82053 7346.34 27 321.037 90.3722 
-0.2815 292.2 5.19423 7328.54 16 393.598 85.5383 
-0.2807 324.763 10.8245 7434.71 30 349.836 101.378 
-0.2799 208.192 4.85741 7444.3 21 346.305 0 
-0.2791 226.701 5.28924 7518.33 21 258.775 78.2215 
-0.2783 343.925 7.64215 7376.53 20 380.963 0 
-0.2775 236.774 6.31346 7392.55 24 275.311 149.631 
-0.2767 220.256 4.16004 7445.38 17 237.144 0 
-0.2759 290.91 7.43376 7358.32 23 392.539 150.982 
-0.2751 207.417 3.6871 7304.12 16 290.183 84.6795 
-0.2743 212.436 5.42846 7401.18 23 421.808 75.4912 
-0.2735 267.842 7.73702 7456.05 26 305.991 179.974 
-0.2727 341.653 7.21206 7427.2 19 373.04 0 
-0.2719 362.93 7.258 7312.23 18 376.692 0 
-0.2711 246.442 4.92843 7390.85 18 283.45 0 
-0.2703 220.716 4.16874 7407.39 17 262.347 190.887 
-0.2695 271.221 6.93061 7463.73 23 164.071 170.48 
-0.2687 227.735 5.31337 7432.16 21 421.649 156.064 
-0.2679 302.859 11.1039 7335.73 33 335.358 180.922 
-0.2671 246.171 3.28201 7401.11 12 268.96 0 
-0.2663 185.905 4.33742 7417.15 21 344.793 0 
-0.2655 225.846 5.26929 7373.53 21 241.958 100.647 
-0.2647 283.275 8.18282 7390.36 26 321.623 73.1072 
-0.2639 261.448 5.22853 7295.43 18 259.72 81.8019 
-0.2631 402.471 6.70728 7505.24 15 296.887 200.39 
-0.2623 386.647 8.16187 7531.48 19 304.358 0 
-0.2615 210.557 4.21078 7442.94 18 368.555 82.687 
-0.2607 266.717 6.51919 7344.88 22 288.449 0 
-0.2599 202.501 4.04969 7375.15 18 242.644 0 
-0.2591 236.476 5.25458 7364.6 20 439.428 158.091 
-0.2583 323.366 8.62236 7343.08 24 269.41 0 
-0.2575 283.715 3.15212 7481.75 10 335.51 0 
-0.2567 262.046 5.53162 7370.53 19 199.824 0 
-0.2559 254.494 5.93769 7406.67 21 243.545 78.2215 
-0.2551 197.393 3.0703 7487.13 14 271.928 0 
-0.2543 232.391 7.48752 7420.97 29 269.243 70.7524 
-0.2535 267.642 6.24447 7376.23 21 311.097 98.2313 
-0.2527 214.859 4.05812 7381.08 17 266.252 166.01 
-0.2519 313.904 7.67256 7475.17 22 481.424 97.612 
-0.2511 276.848 4.61375 7409.54 15 284.95 0 
-0.2503 261.428 4.93768 7468.08 17 342.363 83.3767 
-0.4993 237.445 5.27611 7296.07 20 281.622 79.2785 
-0.4985 205.318 4.79035 7452.39 21 300.601 177.448 
-0.4977 303.898 7.428 7453.19 22 284.348 153.76 
-0.4969 273.074 6.67459 7505.23 22 242.963 77.0444 
-0.4961 312.452 6.59566 7394.73 19 360.561 183.131 
-0.4953 316.306 7.37986 7374.66 21 426.377 77.8293 
-0.4945 212.978 3.78597 7285.99 16 407.244 85.9507 
-0.4937 233.244 5.18277 7386.2 20 249.483 79.2785 
-0.4929 235.221 3.39736 7438.66 13 363.146 119.07 
-0.4921 367.1 5.70997 7402.4 14 313.777 89.1941 
-0.4913 298.671 8.62754 7402.51 26 245.512 146.214 
-0.4905 330.554 10.6503 7382.16 29 271.122 88.3605 
-0.4897 288.781 5.77514 7389.69 18 328.337 163.604 
-0.4889 201.387 3.35617 7410.93 15 207.913 0 
-0.4881 236.514 4.72989 7335.96 18 468.685 0 
-0.4873 252.585 5.61254 7379.23 20 257.578 0 
-0.4865 300.809 9.69194 7305.22 29 424.238 70.7524 
-0.4857 240.432 8.28085 7399.43 31 348.555 0 
-0.4849 269.156 4.48555 7341.98 15 288.407 87.039 
-0.4841 282.513 6.59143 7492.04 21 301.568 156.443 
-0.4833 323.173 7.18103 7365.27 20 264.747 100.707 
-0.4825 284.491 5.68935 7488.5 18 329.599 250.432 
-0.4817 230.121 4.8577 7423.7 19 338.481 200.499 
-0.4809 244.929 5.71453 7424.21 21 341.039 78.0321 
-0.4801 326.194 6.88575 7475.87 19 220.142 0 
-0.4793 304.984 6.09918 7384.58 18 288.839 208.388 
-0.4785 291.257 3.8831 7425.02 12 399.654 152.283 
-0.4777 215.737 4.07469 7414.15 17 343.637 83.0049 
-0.4769 251.056 5.0207 7278.52 18 308.987 82.4105 
-0.4761 283.328 5.3513 7377.77 17 407.948 0 
-0.4753 319.831 6.04075 7490.64 17 249.886 216.98 
-0.4745 240.297 4.80555 7372.72 18 275.657 0 
-0.4737 313.748 7.32017 7375.09 21 285.425 197.634 
-0.4729 295.251 9.51285 7462.23 29 250.629 70.618 
-0.4721 359.789 9.99332 7415.81 25 391.433 201.702 
-0.4713 242.093 5.3794 7379.05 20 494.799 157.604 
-0.4705 235.002 5.48293 7347.42 21 184.119 77.8293 
-0.4697 278.219 7.41856 7370.5 24 426.289 74.9398 
-0.4689 174.253 3.09758 7340.86 16 315.9 84.6795 
-0.4681 300.673 7.01512 7446.67 21 333.025 232.798 
-0.4673 299.192 8.64261 7385.55 26 280.822 0 
-0.4665 266.128 4.4351 7347.38 15 338.441 112.106 
-0.4657 264 8.79927 7438.83 30 281.211 70.0973 
-0.4649 263.39 4.97473 7267.44 17 450.093 107.51 
-0.4641 371.734 8.26007 7414.32 20 411.875 158.557 
-0.4633 221.003 3.43754 7391.01 14 256.21 116.824 
-0.4625 218.739 3.40232 7407.08 14 358.665 88.5933 
-0.4617 201.286 4.69628 7434.43 21 432.144 100.026 
-0.4609 208.886 4.64152 7394.51 20 281.497 0 
-0.4601 253.395 4.50442 7410.73 16 255.881 193.869 
-0.4593 416.6 5.55421 7453.22 12 431.428 0 
-0.4585 296.179 7.5684 7545.18 23 259.013 151.859 
-0.4577 150.538 2.67601 7472.9 16 325.531 85.9507 
-0.4569 311.497 7.9598 7441.78 23 294.115 75.6561 
-0.4561 258.684 5.17326 7416.05 18 148.367 247.178 
-0.4553 251.134 7.25438 7297.4 26 263.213 145.768 
-0.4545 358.678 8.36846 7440.56 21 287.569 99.4156 
-0.4537 270.129 8.1032 7370.73 27 253.906 144.2 
-0.4529 197.491 3.9495 7373.65 18 308.567 81.8019 
-0.4521 275.961 5.51876 7395.57 18 356.044 105.023 
-0.4513 280.715 5.61384 7258.94 18 359.541 0 
-0.4505 282.202 6.89771 7422.93 22 271.883 251.323 
-0.4497 294.537 7.1992 7354.92 22 315.776 76.7031 
-0.4489 351.25 10.5366 7321.41 27 375.706 144.55 
-0.4481 342.293 5.32412 7517.82 14 279.31 89.7945 
-0.4473 283.1 7.86324 7401.81 25 348.743 221.607 
-0.4465 272.727 5.75709 7392.66 19 333.17 80.3645 
-0.4457 272.237 4.83937 7378.77 16 271.832 84.6795 
-0.4449 310.206 6.20361 7349.49 18 403.151 104.194 
-0.4441 306.559 7.49305 7382.91 22 268.981 77.0444 
-0.4433 277.08 7.69602 7352.68 25 388.087 215.934 
-0.4425 287.085 6.06017 7385.66 19 375.73 0 
-0.4417 220.402 5.63203 7415 23 260.568 151.312 
-0.4409 237.321 6.32802 7311.73 24 316.023 149.631 
-0.4401 201.666 7.39382 7384.23 33 370.567 329.123 
-0.4393 280.394 5.60742 7377.59 18 275.941 187.995 
-0.4385 434.972 7.73219 7421.02 16 203.702 109.19 
-0.4377 256.509 5.69973 7396.48 20 293.161 78.8022 
-0.4369 256.067 6.5434 7412.02 23 228.162 188.503 
-0.4361 395.064 5.706 7263.07 13 257.391 0 
-0.4353 232.205 5.41766 7417.09 21 301.997 0 
-0.4345 195.255 4.33864 7457.33 20 372.306 158.091 
-0.4337 253.054 5.06065 7383.23 18 314.605 82.687 
-0.4329 299.897 6.33063 7385.67 19 187.543 102.766 
-0.4321 242.131 3.76616 7414.87 14 201.06 90.3862 
-0.4313 345.973 9.22517 7434.27 24 280.78 184.583 
-0.4305 226.002 4.01747 7395.25 16 363.242 84.6795 
-0.4297 188.94 5.03799 7357.66 24 278.939 170.338 
-0.4289 248.955 6.36165 7417.68 23 316.522 170.48 
-0.4281 228.931 4.06955 7407.61 16 314.578 109.19 
-0.4273 228.169 5.83049 7397.61 23 234.811 151.622 
-0.4265 325.719 6.87572 7391.73 19 429.423 80.0856 
-0.4257 263.771 8.79164 7331.96 30 283.297 87.2916 
-0.4249 540.743 9.61241 7447.48 16 201.51 193.869 
-0.4241 269.693 8.6894 7423.67 29 252.021 141.236 
-0.4233 243.63 7.03762 7430.53 26 309.736 72.9075 
-0.4225 220.435 4.16342 7370.33 17 342.306 166.01 
-0.4217 325.979 9.0542 7331.59 25 354.024 147.531 
-0.4209 272.851 7.88169 7371.09 26 428.758 310.618 
-0.4201 343.938 8.02454 7390.94 21 323.955 0 
-0.4193 199.213 4.42658 7422.29 20 326.467 180.656 
-0.4185 285.05 8.86748 7481.13 28 306.72 159.842 
-0.4177 222.283 4.69224 7442.07 19 262.235 80.3645 
-0.4169 259.286 4.60915 7408.74 16 363.461 149.068 
-0.4161 217.288 4.10398 7390.68 17 297.331 272.524 
-0.4153 289.435 8.68233 7412.48 27 330.227 90.0436 
-0.4145 304.719 6.77096 7346.96 20 303.761 79.4976 
-0.4137 217.086 4.82373 7376.58 20 312.421 100.707 
-0.4129 261.845 6.1092 7441.74 21 341.171 77.6162 
-0.4121 262.206 6.40895 7404.85 22 342.243 0 
-0.4113 210.363 4.44063 7445.22 19 494.801 80.0856 
-0.4105 219.152 3.89571 7385.47 16 324.485 85.9507 
-0.4097 252.047 5.60058 7364.12 20 240.666 181.562 
-0.4089 322.909 7.53391 7412.97 21 234.588 77.6162 
-0.4081 320.322 5.69414 7424.51 16 329.588 170.225 
-0.4073 235.736 5.23814 7417.81 20 360.888 196.588 
-0.4065 266.051 5.91174 7267.81 20 342.888 182.465 
-0.4057 230.883 3.07818 7491.62 12 450.91 125.325 
-0.4049 267.359 5.34673 7450.85 18 301.442 0 
-0.4041 340.126 10.2029 7377.39 27 227.685 89.7164 
-0.4033 236.742 6.57563 7405.02 25 369.119 93.366 
-0.4025 284.32 6.94947 7411.24 22 353.768 0 
-0.4017 341.609 7.21115 7418.36 19 359.196 0 
-0.4009 298.12 8.28043 7401.08 25 252.321 73.7654 
-0.4001 226.837 4.03232 7547.06 16 287.392 112.576 
-0.3993 163.8 2.54779 7356.29 14 319.415 116.824 
-0.3985 269.468 6.28706 7516.67 21 291.831 77.8293 
-0.3977 207.316 3.68532 7336.43 16 309.891 0 
-0.3969 297.935 7.28225 7374.55 22 280.383 189.669 
-0.3961 300.194 6.67043 7428.03 20 431.479 0 
-0.3953 213.2 4.02677 7367.05 17 304.675 127.977 
-0.3945 208.265 5.55328 7304.01 24 388.261 74.8155 
-0.3937 322.566 7.88428 7423.83 22 200.769 189.669 
-0.3929 250.201 4.44764 7411.17 16 313.208 170.225 
-0.3921 306.751 5.4529 7370.45 16 520.167 0 
-0.3913 314.624 10.8361 7375.44 31 408.783 185.041 
-0.3905 278.287 8.65709 7425.92 28 322.3 160.232 
-0.3897 279.54 6.52205 7296.22 21 326.589 0 
-0.3889 162.03 1.80018 7484.75 10 350.797 0 
-0.3881 297.781 7.60931 7329.78 23 339.8 0 
-0.3873 239.32 5.84957 7252.21 22 223.408 175.202 
-0.3865 343.776 11.4582 7351.45 30 358.402 101.378 
-0.3857 235.982 4.98143 7399.01 19 731.717 0 
-0.3849 268.494 5.36944 7522.43 18 282.488 0 
-0.3841 185.513 3.29773 7392.06 16 266.945 193.869 
-0.3833 265.813 4.13452 7540.28 14 388.614 177.129 
-0.3825 369.892 3.69861 7397.11 9 318.703 109.593 
-0.3817 286.963 4.78232 7349.31 15 390.949 198.637 
-0.3809 286.492 7.95744 7480.39 25 292.257 221.249 
-0.3801 284.006 4.41751 7339.82 14 225.338 88.5933 
-0.3793 194.598 3.89164 7346.25 18 343.669 82.1134 
-0.3785 370.255 5.75905 7441.14 14 456.867 89.1941 
-0.3777 233.133 5.43931 7441.44 21 277.688 155.659 
-0.3769 373.009 8.28839 7380.11 20 206.429 79.0455 
-0.3761 208.167 3.70044 7457.56 16 394.783 169.359 
-0.3753 331.653 5.52709 7513.9 15 317.615 87.5423 
-0.3745 207.946 5.0827 7351.99 22 274.429 173.065 
-0.3737 330.743 7.34924 7331.26 20 367.713 179.752 
-0.3729 229.2 5.09292 7470.79 20 278.22 158.557 
-0.3721 177.136 3.14882 7338.89 16 375.422 0 
-0.3713 254.947 5.66502 7409.63 20 332.74 202.755 
-0.3705 207.053 4.37075 7360.9 19 289.56 80.3645 
-0.3697 378.127 9.24233 7389.24 22 288.316 76.8802 
-0.3689 218.336 3.8812 7412.28 16 406.435 0 
-0.3681 294.333 9.15627 7372.74 28 443.213 160.232 
-0.3673 283.21 3.46117 7400.58 11 552.738 0 
-0.3665 260.587 6.07986 7330.75 21 447.696 77.8293 
-0.3657 290.869 7.43269 7400.48 23 339.322 0 
-0.3649 222.663 7.91623 7449.9 32 233.941 68.7601 
-0.3641 282.59 7.22114 7401.77 23 365.043 95.4641 
-0.3633 282.426 7.84452 7376.03 25 279.051 147.531 
-0.3625 208.178 4.16321 7418.78 18 238.326 0 
-0.3617 305.524 6.78885 7410.78 20 500.929 0 
-0.3609 249.581 4.15933 7396.86 15 366.912 86.531 
-0.3601 290.142 5.15766 7459.08 16 258.869 110.269 
-0.3593 259.318 7.20268 7383.21 25 307.531 165.816 
-0.3585 250.893 3.90246 7400.22 14 248.627 0 
-0.3577 254.152 7.90628 7383 28 380.965 192.131 
-0.3569 144.914 4.34706 7503.72 27 308.754 144.385 
-0.3561 259.987 5.77701 7324.35 20 318.492 100.707 
-0.3553 378.18 7.56297 7419.53 18 255.763 82.4105 
-0.3545 299.786 6.66135 7396.92 20 324.286 182.465 
-0.3537 218.503 6.06902 7392.13 25 310.361 0 
-0.3529 275.698 4.28828 7501.66 14 341.202 0 
-0.3521 289.283 5.14238 7309.18 16 293.369 109.19 
-0.3513 300.101 8.00202 7355.93 24 185.148 0 
-0.3505 225.674 4.26237 7432.48 17 311.852 127.977 
-0.3497 177.295 4.5305 7318.77 23 370.292 150.982 
-0.3489 320.659 7.83768 7447.71 22 297.336 175.202 
-0.3481 251.04 5.2993 7434.95 19 277.771 160.171 
-0.3473 317 6.69167 7449.37 19 367.704 103.523 
-0.3465 261.474 5.22904 7376.88 18 382.639 0 
-0.3457 271.052 7.5286 7415.9 25 309.027 0 
-0.3449 306.633 6.81349 7441.15 20 308.265 100.052 
-0.3441 273.825 6.99715 7439.91 23 320.902 75.9539 
-0.3433 226.257 5.53026 7412.69 22 333.761 173.779 
-0.3425 266.518 5.62602 7443.96 19 451.349 80.0856 
-0.3417 223.897 4.97508 7449.03 20 306.033 79.2785 
-0.3409 377.353 5.86945 7423.74 14 292.472 89.1941 
-0.3401 268.713 4.17964 7423.3 14 352.845 0 
-0.3393 299.422 5.32262 7378.42 16 350.359 85.1125 
-0.3385 180.018 3.40006 7419.25 17 185.932 106.568 
-0.3377 309.179 6.87007 7511.5 20 306.912 79.0455 
-0.3369 333.397 8.14902 7316.37 22 392.086 76.7031 
-0.3361 322.16 8.94815 7324.88 25 231.432 108.734 
-0.3353 395.035 9.21672 7516.58 21 234.454 77.8293 
-0.3345 270.859 5.1158 7390.76 17 311.397 168.177 
-0.3337 243.543 5.95277 7466.23 22 386.89 0 
-0.3329 194.536 4.5388 7403.87 21 254.22 194.161 
-0.3321 274.269 5.1802 7356.4 17 278.048 83.0049 
-0.3313 263.854 4.98349 7366.67 17 335.005 83.7397 
-0.3305 211.115 4.22195 7445.88 18 330.774 0 
-0.3297 226.81 5.29179 7403.31 21 239.082 155.659 
-0.3289 331.224 6.99193 7403.21 19 292.637 160.171 
-0.3281 242.101 6.1865 7355.3 23 403.551 151.312 
-0.3273 200.752 3.79167 7431.38 17 311.905 0 
-0.3265 199.97 2.66605 7305.48 12 388.256 123.292 
-0.3257 280.08 4.66762 7449.09 15 240.866 0 
-0.3249 222.492 2.71912 7451.83 11 401.929 0 
-0.3241 298.594 6.96661 7383.87 21 282.799 98.2313 
-0.3233 249.048 5.53394 7459.55 20 445.977 158.091 
-0.3225 239.274 3.98758 7360.79 15 336.997 222.924 
-0.3217 289.701 6.1154 7324.32 19 317.334 0 
-0.3209 212.136 4.47805 7414.28 19 286.288 241.042 
-0.3201 210.988 4.92263 7412.45 21 336.32 99.4156 
-0.3193 377.055 7.95938 7421.39 19 349.405 0 
-0.3185 317.729 3.53003 7346.7 10 391.026 0 
-0.3177 294.502 7.85274 7372.39 24 319.077 243.986 
-0.3169 251.454 5.5874 7383.12 20 418.916 79.0455 
-0.3161 198.778 4.8586 7404.06 22 312.81 0 
-0.3153 260.953 4.9287 7336.81 17 224.626 0 
-0.3145 354.292 9.84063 7379.49 25 245.939 181.83 
-0.3137 228.298 3.04371 7288.66 12 406.714 0 
-0.3129 380.838 7.19301 7487.77 17 297.579 213.135 
-0.3121 289.422 5.46641 7486.56 17 338.343 83.3767 
-0.3113 292.881 8.46031 7375.85 26 296.094 164.64 
-0.3105 255.581 5.1112 7453.1 18 390.763 81.8019 
-0.3097 227.608 3.54028 7399.51 14 297.612 88.5933 
-0.3089 301.487 9.71378 7325.22 29 410.531 141.38 
-0.3081 321.407 8.21305 7378.79 23 339.096 170.48 
-0.3073 181.134 4.42734 7490.4 22 262.299 175.202 
-0.3065 170.044 3.58952 7502.04 19 289.955 160.171 
-0.3057 227.804 5.82117 7479.3 23 460.217 171.758 
-0.3049 388.699 8.20519 7370.21 19 222.334 80.0856 
-0.3041 207.316 6.67962 7394.14 29 340.062 0 
-0.3033 308.937 7.8944 7358.01 23 194.137 151.622 
-0.3025 261.281 6.96691 7353.35 24 357.705 74.8155 
-0.3017 237.565 6.59849 7461.6 25 251.414 166.337 
-0.3009 270.256 8.10701 7409.4 27 303.429 144.2 
-0.3001 269.055 6.57635 7438.16 22 383.586 0 
-0.2993 285.859 6.35188 7457.41 20 369.125 219.556 
-0.2985 243.651 4.06051 7277.88 15 268.521 0 
-0.2977 237.246 5.79887 7456.09 22 309.811 114.913 
-0.2969 298.947 5.97845 7309.4 18 311.982 0 
-0.2961 282.84 6.28481 7384.8 20 386.216 243.066 
-0.2953 396.335 3.96302 7242.4 9 286.507 104.194 
-0.2945 220.958 3.92781 7359.65 16 289.837 0 
-0.2937 266.745 6.51988 7348.14 22 319.511 97.612 
-0.2929 422.591 9.39013 7341.38 20 328.929 78.8022 
-0.2921 239.47 4.78901 7366.97 18 358.249 81.4807 
-0.2913 220.846 4.41656 7384.73 18 400.713 104.194 
-0.2905 262.196 6.4087 7438.2 22 365.89 195.224 
-0.2897 258.452 5.74289 7403.94 20 202.111 79.0455 
-0.2889 297.313 6.27609 7363.08 19 386.527 80.0856 
-0.2881 281.415 5.00252 7440.47 16 308.706 0 
-0.2873 250.912 4.73906 7375.8 17 302.194 0 
-0.2865 254.607 5.94034 7474.35 21 371.582 155.659 
-0.2857 299.579 8.98662 7417.53 27 275.875 221.646 
-0.2849 401.905 7.5909 7430.75 17 368.343 83.3767 
-0.2841 322.371 7.16319 7415.82 20 344.988 158.091 
-0.2833 330.845 6.24877 7400.96 17 271.631 83.3767 
-0.2825 213.678 4.51061 7347.19 19 344.89 161.215 
-0.2817 239 7.70048 7366.64 29 322.14 115.033 
-0.2809 321.682 5.36092 7429.97 15 393.891 0 
-0.2801 190.555 4.86934 7439.46 23 272.258 151.622 
-0.2793 250.834 5.85231 7386.28 21 262.696 0 
-0.2785 257.318 6.57536 7471.63 23 266.018 150.982 
-0.2777 200.583 3.56562 7318.34 16 414.925 196.935 
-0.2769 235.516 5.49492 7332.61 21 426.145 232.663 
-0.2761 316.748 6.33443 7412.88 18 379.602 163.604 
-0.2753 319.137 5.67308 7400.91 16 355.329 84.6795 
-0.2745 222.61 3.95718 7426.52 16 227.017 169.359 