ITEM: TIMESTEP
10000
ITEM: NUMBER OF CELLS
5000
ITEM: BOX BOUNDS or pp pp
-0.5 0.5
0 0.0002
-0.5 0.5
ITEM: CELLS xc c_1[1] c_1[2] c_2[1] c_2[2] c_2[3] c_3[1] 
-0.4999 198.441 3.96848 7350.01 18 360.599 0 
-0.4991 337.053 8.23838 7361.09 22 377.097 173.779 
-0.4983 290.434 6.45356 7420.88 20 402.671 158.091 
-0.4975 214.669 5.24703 7376.17 22 424.089 76.7031 
-0.4967 260.756 7.53233 7401.33 26 340.438 73.1891 
-0.4959 260 6.64389 7378.62 23 290.438 0 
-0.4951 254.835 6.22877 7420.85 22 232.056 0 
-0.4943 309.137 7.2126 7395.8 21 357.973 0 
-0.4935 230.49 5.12158 7392.36 20 342.717 79.2785 
-0.4927 188.803 5.24408 7355.09 25 329.693 92.9674 
-0.4919 263.061 5.55304 7387.82 19 286.791 184.156 
-0.4911 267.94 7.73985 7443.02 26 384.114 164.174 
-0.4903 316.136 5.97096 7326.55 17 264.329 166.753 
-0.4895 255.582 4.25934 7269.72 15 161.107 271.77 
-0.4887 314.08 9.77058 7396.56 28 246.802 160.232 
-0.4879 245.451 5.18131 7374.88 19 229.901 0 
-0.4871 377.584 10.0681 7407.7 24 349.996 125.325 
-0.4863 233.58 5.19022 7318.45 20 433.074 79.0455 
-0.4855 354.436 9.05705 7357.42 23 399.767 76.0813 
-0.4847 188.357 4.39464 7374.61 21 320.81 77.8293 
-0.4839 369.295 9.43675 7251.7 23 349.325 171.758 
-0.4831 227.843 4.30334 7332.45 17 368.805 83.0049 
-0.4823 266.799 5.03913 7257.22 17 189.806 190.887 
-0.4815 215.3 4.78404 7405.91 20 338.212 100.052 
-0.4807 275.653 7.04389 7441.36 23 257.085 75.6561 
-0.4799 281.938 6.57801 7444.03 21 250.833 176.646 
-0.4791 297.376 7.92936 7451.51 24 260.108 94.4034 
-0.4783 228.139 4.81587 7358.3 19 236.381 80.0856 
-0.4775 296.504 6.58843 7500.38 20 273.506 158.091 
-0.4767 268.17 7.7465 7387.91 26 237.433 0 
-0.4759 258.503 5.74403 7355.54 20 256.378 101.378 
-0.4751 267.817 3.86815 7437.45 13 494.751 0 
-0.4743 254.697 5.94243 7434.91 21 374.362 77.8293 
-0.4735 251.842 5.31623 7403.98 19 401.013 0 
-0.4727 232.314 6.19453 7395.45 24 302.275 93.536 
-0.4719 239.218 4.78395 7400.53 18 270.549 0 
-0.4711 235.48 5.49407 7464.46 21 369.06 175.848 
-0.4703 307.322 4.78017 7396.45 14 294.323 90.3862 
-0.4695 257.945 10.0304 7398.67 35 316.669 134.039 
-0.4687 335.699 10.0701 7436.9 27 286.569 202.341 
-0.4679 346.169 8.84581 7298.75 23 348.111 0 
-0.4671 240.983 4.55152 7393.23 17 306.353 83.3767 
-0.4663 207.102 2.76113 7362.14 12 324.122 94.4034 
-0.4655 324.209 6.84385 7416.42 19 445.619 240.205 
-0.4647 290.766 5.4918 7416.01 17 475.2 167.479 
-0.4639 272.475 5.75178 7479.53 19 251.097 217.243 
-0.4631 282.233 7.5256 7354.54 24 332.94 205.042 
-0.4623 333.293 6.6653 7391.67 18 302.311 81.4807 
-0.4615 225.153 4.75284 7483.41 19 371.574 207.046 
-0.4607 231.029 6.41693 7449.36 25 443.428 166.852 
-0.4599 225.655 5.76627 7414.34 23 307.626 151.263 
-0.4591 284.639 7.2735 7435.78 23 236.017 208.638 
-0.4583 315.01 7.34963 7435.61 21 338.811 117.326 
-0.4575 263.526 4.39174 7307.92 15 340.638 0 
-0.4567 262.147 7.28125 7399.52 25 301.092 108.734 
-0.4559 324.096 9.00191 7435.09 25 257.08 239.405 
-0.4551 238.896 6.90087 7394.7 26 252.677 164.174 
-0.4543 254.7 6.50845 7388.75 23 233.914 75.8112 
-0.4535 338.946 8.66122 7438.2 23 364.423 75.9539 
-0.4527 224.585 4.24181 7478.54 17 308.68 83.0049 
-0.4519 231.426 7.71355 7409.3 30 264.191 182.656 
-0.4511 247.693 7.15497 7444.13 26 404.925 73.1891 
-0.4503 281.347 7.81453 7353.29 25 403.356 92.5717 
-0.4495 270.552 4.80942 7344.43 16 178.776 84.6795 
-0.4487 209.523 4.88846 7425.87 21 348.669 0 
-0.4479 341.878 8.73615 7339.53 23 436.949 95.9469 
-0.4471 120.908 1.74631 7385.11 13 210.834 181.819 
-0.4463 241.261 7.23724 7394.43 27 356.72 162.977 
-0.4455 132.938 1.77236 7307.41 12 362.716 0 
-0.4447 225.22 5.25469 7489.82 21 297.467 0 
-0.4439 241.073 5.35673 7441.9 20 468.147 0 
-0.4431 249.56 5.26805 7483.31 19 365.676 183.131 
-0.4423 354.686 8.66938 7404.46 22 272.53 153.406 
-0.4415 338.241 8.6432 7462.09 23 427.346 303.196 
-0.4407 359.829 7.59576 7378.98 19 229.456 80.3645 
-0.4399 245.896 6.82987 7430.02 25 347.795 92.1796 
-0.4391 274.534 6.71027 7507.98 22 257.154 76.8802 
-0.4383 276.225 7.36538 7433.93 24 215.831 186.336 
-0.4375 152.675 1.86588 7421.74 11 322.827 193.098 
-0.4367 246.319 4.92597 7470.81 18 271.389 162.961 
-0.4359 248.244 4.96446 7382.22 18 370.476 82.1134 
-0.4351 291.729 7.13056 7503.57 22 287.25 173.065 
-0.4343 350.578 7.78998 7391.62 20 253.348 0 
-0.4335 367.964 5.7234 7292.09 14 253.603 178.388 
-0.4327 158.619 2.46719 7307.5 14 388.46 0 
-0.4319 229.17 4.58301 7407.34 18 243.16 81.8019 
-0.4311 438.507 11.2053 7443.54 23 422.459 95.9469 
-0.4303 240.833 4.28112 7472.79 16 480.099 84.6795 
-0.4295 292.047 6.4894 7377.98 20 244.133 180.656 
-0.4287 271.134 6.62716 7402.13 22 316.557 153.406 
-0.4279 208.255 3.702 7416.26 16 357.609 0 
-0.4271 266.929 4.745 7405.9 16 328.046 0 
-0.4263 302.526 7.39445 7492.31 22 364.999 153.032 
-0.4255 201.166 4.69348 7326.56 21 438.511 155.232 
-0.4247 238.339 5.82558 7351.51 22 238.628 0 
-0.4239 230.692 3.33194 7411.63 13 207.585 0 
-0.4231 296.937 7.25785 7431.27 22 423.81 0 
-0.4223 348.099 10.8288 7371.03 28 360.841 71.3383 
-0.4215 215.075 5.73486 7423 24 394.884 109.19 
-0.4207 242.19 6.72693 7388.49 25 264.985 210.183 
-0.4199 253.738 5.07433 7465.81 18 352.294 0 
-0.4191 300.353 8.67615 7421.81 26 310.473 90.9094 
-0.4183 289.636 4.18328 7375.33 13 406.285 90.9094 
-0.4175 233.19 6.47695 7397.92 25 443.151 92.1796 
-0.4167 388.342 5.60892 7421.94 13 249.01 0 
-0.4159 262.051 7.56973 7464.4 26 509.474 146.025 
-0.4151 282.435 5.02065 7422.24 16 212.835 169.359 
-0.4143 250.922 5.2968 7408.51 19 369.25 80.6333 
-0.4135 204.85 3.41388 7469.67 15 181.974 113.351 
-0.4127 345.107 10.7358 7438.89 28 322.521 142.677 
-0.4119 240.337 3.47124 7335.17 13 296.221 0 
-0.4111 226.464 5.53531 7398.75 22 289.932 153.406 
-0.4103 308.109 5.13472 7401.08 15 252.131 87.039 
-0.4095 286.548 5.41212 7432.67 17 269.179 189.573 
-0.4087 208.315 4.16595 7415.06 18 273.445 81.8019 
-0.4079 363.987 8.49233 7326.34 21 288.406 0 
-0.4071 271.1 5.12036 7488.89 17 386.86 83.3767 
-0.4063 327.447 8.00359 7389.32 22 238.039 76.7031 
-0.4055 303.941 6.07832 7339.92 18 351.447 104.194 
-0.4047 205.989 2.74629 7412.8 12 250.326 0 
-0.4039 238.517 5.03495 7327.5 19 257.162 80.0856 
-0.4031 414.402 5.9853 7486.7 13 350.783 0 
-0.4023 302.504 8.73827 7314.6 26 331.772 72.9075 
-0.4015 489.586 8.70303 7455.1 16 248.032 169.359 
-0.4007 244.324 5.70042 7343.74 21 365.192 192.991 
-0.3999 230.886 4.87385 7409.9 19 284.572 0 
-0.3991 306.554 8.17409 7439.86 24 201.389 74.6794 
-0.3983 262.314 5.82872 7349.6 20 351.987 0 
-0.3975 207.446 4.37905 7368.32 19 240.865 80.8879 
-0.3967 217.089 4.8238 7431.72 20 274.798 79.0455 
-0.3959 372.327 8.27325 7349.81 20 310.461 180.656 
-0.3951 283.45 6.61328 7409.65 21 357.609 210.075 
-0.3943 292.796 6.83133 7408.11 21 418.707 77.8293 
-0.3935 197.421 4.6061 7370.89 21 262.962 155.232 
-0.3927 275.073 5.501 7442.19 18 440.472 186.825 
-0.3919 190.179 4.43713 7400.78 21 321.349 98.8171 
-0.3911 342.788 9.5211 7414.01 25 273.105 167.359 
-0.3903 301.044 7.02378 7435.5 21 364.539 216.741 
-0.3895 136.637 2.12528 7297.9 14 286.386 177.187 
-0.3887 244.39 4.61588 7293.36 17 381.78 194.981 
-0.3879 322.526 5.01665 7457.23 14 422.535 203.968 
-0.3871 203.651 4.97773 7363.37 22 458.163 0 
-0.3863 234.775 5.47762 7456.72 21 317.326 311.267 
-0.3855 307.901 7.52583 7365.54 22 378.446 97.0757 
-0.3847 208.982 4.87585 7424.85 21 520.299 98.2313 
-0.3839 273.32 5.76961 7399.66 19 290.345 183.131 
-0.3831 178.936 2.38562 7311.29 12 449.458 93.536 
-0.3823 230.513 4.35378 7388.22 17 335.597 0 
-0.3815 237.822 4.75605 7425.06 18 392.864 81.8019 
-0.3807 258.501 4.88239 7413.33 17 377.797 83.0049 
-0.3799 304.104 6.08157 7389.33 18 335.137 0 
-0.3791 254.532 6.50417 7365.6 23 324.798 75.4912 
-0.3783 182.014 1.81998 7478.09 9 410.022 0 
-0.3775 308.722 4.45894 7369.58 13 286.721 0 
-0.3767 293.048 6.51164 7488.29 20 311.078 0 
-0.3759 215.158 6.21517 7411.36 26 316.674 121.672 
-0.3751 186.409 3.52077 7391.52 17 308.2 107.51 
-0.3743 248.756 5.25108 7300.14 19 428.364 102.766 
-0.3735 246.028 6.83354 7398.82 25 291.928 73.6366 
-0.3727 263.068 6.43001 7426.33 22 401.058 77.0444 
-0.3719 311.045 6.56596 7375.11 19 399.012 205.533 
-0.3711 243.08 6.75165 7410.84 25 290.172 0 
-0.3703 265.138 6.48061 7420.42 22 391.513 153.032 
-0.3695 291.596 7.77526 7466.26 24 360.985 0 
-0.3687 270.781 8.12276 7413.25 27 406.64 72.1001 
-0.3679 315.178 4.20202 7479.21 12 241.728 0 
-0.3671 245.899 6.01036 7413.4 22 243.972 128.173 
-0.3663 303.316 7.41377 7408.88 22 307.372 98.7099 
-0.3655 285.484 6.02637 7421.86 19 280.873 80.0856 
-0.3647 237.261 6.59003 7396.68 25 248.924 147.987 
-0.3639 334.031 8.16452 7386.65 22 193.028 77.0444 
-0.3631 293.813 4.57005 7430.51 14 409.177 0 
-0.3623 253.31 3.94005 7384.14 14 284.509 179.589 
-0.3615 284.314 7.2652 7385.01 23 402.92 151.312 
-0.3607 313.981 8.37213 7484.08 24 146.582 93.967 
-0.3599 312.672 5.55814 7369.49 16 310.315 0 
-0.3591 232.41 4.64781 7366.26 18 363.535 81.8019 
-0.3583 230.954 4.87528 7397.76 19 442.772 103.523 
-0.3575 302.48 7.39334 7358.27 22 258.544 76.7031 
-0.3567 229.175 6.11081 7421.62 24 368.505 74.8155 
-0.3559 243.147 6.75352 7395.82 25 351.866 92.5717 
-0.3551 332.671 6.28326 7410.55 17 240.85 83.0049 
-0.3543 402.932 10.2963 7354.13 23 273.995 111.882 
-0.3535 225.809 4.5158 7407.84 18 228.32 82.687 
-0.3527 179.315 3.18755 7516.08 16 431.054 171.077 
-0.3519 246.401 4.65386 7398.22 17 385.5 83.0049 
-0.3511 212.611 4.01565 7428.67 17 304.108 83.0049 
-0.3503 253.002 5.05962 7367.42 18 289.852 0 
-0.3495 209.186 5.113 7419.95 22 309.179 97.612 
-0.3487 285.562 6.02804 7478.22 19 389.589 80.3645 
-0.3479 239.641 5.32491 7427.53 20 316.705 201.413 
-0.3471 276.305 7.06053 7479.05 23 217.306 150.982 
-0.3463 238.117 2.38097 7515.25 9 315.685 0 
-0.3455 223.439 2.97894 7355.78 12 173.463 94.4034 
-0.3447 202.897 4.73386 7343.8 21 245.012 98.8171 
-0.3439 296.047 5.92044 7302.58 18 398.374 189.178 
-0.3431 308.36 7.19446 7369.51 21 451.409 98.2313 
-0.3423 254.131 3.95282 7391.66 14 439.845 251.877 
-0.3415 214.686 4.29336 7517.51 18 232.536 81.4807 
-0.3407 256.63 5.70241 7457.36 20 242.214 0 
-0.3399 288.263 4.80399 7424.8 15 482.664 87.039 
-0.3391 284.685 4.11178 7314.24 13 397.775 90.9094 
-0.3383 219.851 4.1524 7414.28 17 315.589 83.7397 
-0.3375 400.039 10.2224 7458.36 23 272.186 188.503 
-0.3367 286.924 6.05678 7469.2 19 288.535 0 
-0.3359 278.027 9.88458 7383.48 32 286.974 0 
-0.3351 259.952 5.77622 7458.94 20 290.74 78.8022 
-0.3343 345.142 7.66919 7383.37 20 297.854 317.063 
-0.3335 277.841 7.0998 7417.69 23 233.936 171.12 
-0.3327 297.376 5.61663 7347.64 17 388.951 83.3767 
-0.3319 331.923 10.6944 7452.15 29 257.93 141.334 
-0.3311 287.38 7.66283 7368.49 24 460.126 93.536 
-0.3303 352.991 5.88269 7344.88 15 438.309 87.5423 
-0.3295 197.985 3.51944 7397.75 16 497.935 0 
-0.3287 259.929 8.086 7361.71 28 301.491 88.8933 
-0.3279 294.666 8.18448 7373.64 25 197.283 92.5717 
-0.3271 231.058 2.5671 7511.37 10 284.484 0 
-0.3263 314.428 8.03472 7374.86 23 309.509 150.982 
-0.3255 220.447 4.65349 7402.16 19 488.739 160.729 
-0.3247 245.697 4.36758 7371.65 16 464.846 85.5383 
-0.3239 389.518 8.65524 7364.77 20 257.325 79.0455 
-0.3231 255.77 6.53581 7364.67 23 298.925 75.9539 
-0.3223 127.982 2.27504 7548.71 16 329.224 0 
-0.3215 271.092 5.72258 7382.67 19 436.51 160.171 
-0.3207 285.147 4.43525 7415.33 14 184.21 89.1941 
-0.3199 316.907 7.04179 7343.65 20 278.93 78.8022 
-0.3191 206.009 2.97544 7317.69 13 360.676 0 
-0.3183 203.503 3.39143 7403.12 15 277.34 87.039 
-0.3175 252.415 5.32832 7309.32 19 228.756 0 
-0.3167 276.715 8.60819 7406.79 28 342.027 177.787 
-0.3159 242.642 3.23495 7417.69 12 303.493 93.536 
-0.3151 301.269 7.02903 7465.43 21 256.553 0 
-0.3143 135.544 2.40946 7339.74 16 362.922 85.9507 
-0.3135 371.698 5.78149 7350.84 14 308.127 0 
-0.3127 274.15 6.09172 7381.05 20 269.819 0 
-0.3119 296.083 7.89489 7370.22 24 308.564 317.089 
-0.3111 325.828 7.96402 7441.77 22 219.831 76.8802 
-0.3103 179.213 3.18574 7382.33 16 373.259 85.1125 
-0.3095 277.788 7.09843 7399.98 23 351.759 95.4641 
-0.3087 174.718 3.8823 7388.88 20 244.077 101.378 
-0.3079 371.217 7.01128 7378.45 17 335.969 84.4158 
-0.3071 277.573 6.78456 7440.79 22 293.468 189.669 
-0.3063 311.625 5.53955 7422.04 16 305.89 0 
-0.3055 207.316 4.14598 7431.52 18 286.907 0 
-0.3047 300.534 7.01187 7496.7 21 354.125 310.415 
-0.3039 304.949 7.11489 7329.73 21 439.25 176.646 
-0.3031 258.486 6.6052 7418.85 23 239.704 96.9302 
-0.3023 260.329 4.91691 7387.99 17 146.569 83.7397 
-0.3015 241.819 5.91064 7384.22 22 429.665 230.06 
-0.3007 217.773 5.08095 7475.49 21 327.108 177.448 
-0.2999 298.055 9.27206 7406.45 28 296.492 159.842 
-0.2991 182.719 2.63905 7396.34 13 407.441 91.6271 
-0.2983 231.514 3.85825 7428.07 15 263.774 0 
-0.2975 263.651 4.1009 7372.61 14 212.592 115.375 
-0.2967 295.107 9.5082 7442.15 29 334.324 141.459 
-0.2959 235.666 5.23659 7308.43 20 333.766 0 
-0.2951 245.715 5.45989 7355.25 20 303.33 0 
-0.2943 259.605 5.48009 7440.04 19 290.29 120.413 
-0.2935 217.066 5.54678 7281.78 23 236.368 111.882 
-0.2927 239.144 2.65693 7452.72 10 365.034 101.378 
-0.2919 281.656 7.5102 7425.4 24 361.105 74.6794 
-0.2911 248.96 6.36178 7438.83 23 291.331 206.087 
-0.2903 286.924 5.41922 7406.65 17 385.224 192.23 
-0.2895 254.492 4.80666 7396.19 17 274.328 166.753 
-0.2887 203.216 4.06398 7419.45 18 221.264 0 
-0.2879 219.97 5.37659 7390.99 22 424.021 0 
-0.2871 258.787 6.61289 7392.98 23 391.799 186.589 
-0.2863 342.179 9.50417 7404.88 25 403.989 93.7663 
-0.2855 234.569 6.51526 7385.89 25 324.469 166.337 
-0.2847 245.635 4.09358 7360.49 15 370.637 113.351 
-0.2839 177.868 3.16183 7423.71 16 368.815 85.1125 
-0.2831 300.796 7.35218 7298.7 22 461.824 153.406 
-0.2823 349.424 7.37611 7391.19 19 315.484 102.032 
-0.2815 227.406 5.05304 7378.7 20 256.834 79.2785 
-0.2807 221.218 3.44088 7464.12 14 396.489 0 
-0.2799 319.616 6.74689 7496.58 19 340.018 0 
-0.2791 290.067 4.83405 7338.28 15 227.882 0 
-0.2783 206.506 5.27695 7400.04 23 226.256 151.622 
-0.2775 227.257 6.31217 7427.3 25 361.504 147.531 
-0.2767 223.402 5.95688 7358.78 24 410.488 168.646 
-0.2759 228.122 5.32241 7465.82 21 285.745 78.0321 
-0.2751 399.83 11.5497 7366.9 26 319.983 0 
-0.2743 209.962 2.79925 7329.75 12 480.628 95.2879 
-0.2735 230.967 4.61895 7482.76 18 298.923 185.674 
-0.2727 379.995 6.7549 7357.12 16 375.529 171.077 
-0.2719 267.403 4.75343 7440.86 16 429.239 193.869 
-0.2711 284.552 6.32285 7374.73 20 334.876 79.0455 
-0.2703 299.645 5.32658 7360.71 16 498.399 85.5383 
-0.2695 221.148 4.42259 7366.92 18 263.146 0 
-0.2687 249.922 5.27569 7434.02 19 320.621 201.968 
-0.2679 232.495 5.42443 7379.59 21 544.238 99.4156 
-0.2671 205.327 5.0187 7311.79 22 275.856 153.76 
-0.2663 255.151 3.96868 7432.14 14 244.336 88.5933 
-0.2655 309.346 5.15533 7523 15 208.627 113.351 
-0.2647 270.217 6.30454 7340.31 21 287.483 0 
-0.2639 329.218 5.85227 7393.67 16 505.462 131.704 
-0.2631 240.473 4.80907 7400.88 18 360.503 104.194 
-0.2623 323.492 8.98515 7333.4 25 383.078 147.77 
-0.2615 242.905 7.01666 7399.29 26 321.008 72.7933 
-0.2607 282.019 5.01326 7321.17 16 326.077 85.5383 
-0.2599 353.893 7.47044 7401.13 19 345.782 160.729 
-0.2591 214.043 4.75611 7342.23 20 318.737 78.8022 
-0.2583 299.377 6.65226 7413.94 20 215.185 0 
-0.2575 301.806 7.71218 7473.6 23 246.198 151.312 
-0.2567 274.577 5.49108 7329.42 18 330.778 0 
-0.2559 234.439 5.46979 7445.55 21 499.598 156.064 
-0.2551 368.669 8.19195 7393.62 20 288.252 79.4976 
-0.2543 273.528 5.4701 7418.81 18 224.546 0 
-0.2535 205.55 3.88229 7348.95 17 214.054 83.3767 
-0.2527 331.483 4.78769 7461.21 13 299.759 183.254 
-0.2519 265.827 8.86016 7370.74 30 297.039 69.9355 
-0.2511 226.753 4.03083 7432.18 16 315.277 85.5383 
-0.2503 256.691 8.84084 7356.92 31 224.878 86.0498 
-0.4993 205.548 4.33898 7255.29 19 352.949 0 
-0.4985 247.84 5.23174 7383.28 19 397.656 80.0856 
-0.4977 213.576 4.50845 7441.34 19 174.756 0 
-0.4969 262.967 4.96674 7408.11 17 276.047 83.0049 
-0.4961 352.705 5.48606 7338.47 14 386.303 89.1941 
-0.4953 342.609 9.51611 7427.58 25 359.482 0 
-0.4945 172.806 2.30389 7388.56 12 319.913 95.2879 
-0.4937 240.496 4.54232 7385.27 17 493.369 83.7397 
-0.4929 243.717 6.49858 7506.39 24 268.424 74.5338 
-0.4921 266.049 4.13819 7340.92 14 217.856 0 
-0.4913 249.382 4.71016 7332.95 17 243.59 129.58 
-0.4905 287.569 7.34836 7360.51 23 259.15 223.764 
-0.4897 291.605 7.12754 7373.28 22 266.814 96.5489 
-0.4889 241.557 5.36748 7411.9 20 290.67 79.4976 
-0.4881 275.724 5.51401 7351.6 18 396.531 0 
-0.4873 297.993 5.62828 7238.09 17 314.306 108.49 
-0.4865 279.382 5.58718 7479.23 18 301.776 105.023 
-0.4857 233.168 3.62675 7280.48 14 331.494 177.187 
-0.4849 277.745 8.02307 7429.56 26 294.465 73.0127 
-0.4841 199.762 3.77297 7429.6 17 354.167 0 
-0.4833 382.027 8.48879 7387.74 20 309.752 79.2785 
-0.4825 269.923 4.49834 7423.68 15 208.321 240.506 
-0.4817 264.146 5.28248 7433.24 18 264.427 124.63 
-0.4809 342.236 6.84415 7404.41 18 285.35 105.023 
-0.4801 230.525 7.17128 7305.79 28 272.794 142.677 
-0.4793 219.411 3.65654 7307.69 15 340.028 86.531 
-0.4785 309.386 3.43734 7427.39 10 151.368 0 
-0.4777 262.666 5.83653 7375.93 20 240.215 200.105 
-0.4769 309.146 7.21282 7272.68 21 380.48 156.443 
-0.4761 283.417 9.13157 7487.22 29 287.952 70.8044 
-0.4753 324.167 6.84296 7372.43 19 257.691 80.0856 
-0.4745 248.384 4.13939 7363.84 15 309.779 0 
-0.4737 389.11 9.51078 7349.01 22 257.748 76.8802 
-0.4729 254.657 4.52685 7451.95 16 297.446 131.704 
-0.4721 318.878 9.91984 7389.36 28 262.048 160.232 
-0.4713 297.247 5.94445 7381.28 18 412.944 81.8019 
-0.4705 238.733 5.56996 7426.64 21 363.087 99.4156 
-0.4697 295.609 8.21067 7378.76 25 370.052 92.5717 
-0.4689 182.782 3.24919 7317.16 16 285.837 0 
-0.4681 311.381 8.64874 7414.1 25 280.983 148.176 
-0.4673 266.973 3.85595 7375.61 13 361.222 274.822 
-0.4665 199.78 5.10506 7430.58 23 257.249 208.638 
-0.4657 232.601 6.71902 7321.12 26 267.922 0 
-0.4649 262.345 3.78911 7325.96 13 436.707 91.6271 
-0.4641 272.399 7.86865 7443.41 26 246.264 91.6271 
-0.4633 227.895 5.82351 7400.77 23 253.564 96.436 
-0.4625 238.693 5.56903 7328.68 21 357.022 78.0321 
-0.4617 205.091 3.19003 7379.65 14 294.856 89.1941 
-0.4609 249.484 5.54364 7520.14 20 263.837 100.707 
-0.4601 338.215 5.63645 7348.31 15 244.238 202.203 
-0.4593 324.292 8.28677 7438.37 23 251.097 95.4641 
-0.4585 345.076 6.51755 7396.07 17 245.577 83.7397 
-0.4577 214.815 4.05728 7390.06 17 253.128 83.0049 
-0.4569 291.835 8.75431 7360.34 27 337.954 0 
-0.4561 288.794 6.41712 7462.45 20 309.771 79.2785 
-0.4553 324.239 6.84447 7377.98 19 263.102 80.6333 
-0.4545 330.773 6.61491 7357.11 18 452.181 81.4807 
-0.4537 223.831 5.22229 7427.88 21 363.046 155.232 
-0.4529 377.812 7.55561 7410.54 18 222.886 0 
-0.4521 294.563 8.18161 7394.21 25 250.789 181.83 
-0.4513 324.173 5.04227 7316.48 14 595.658 178.388 
-0.4505 270.307 5.10538 7394.1 17 290.439 83.7397 
-0.4497 206.754 4.13473 7293.32 18 153.485 211.762 
-0.4489 309.29 7.5598 7289.4 22 339.524 143.809 
-0.4481 296.239 5.92428 7383.13 18 195.891 0 
-0.4473 260.833 5.21622 7439.58 18 235.833 0 
-0.4465 279.423 3.41488 7402.39 11 253.319 0 
-0.4457 267.438 5.05119 7344.81 17 273.692 217.499 
-0.4449 282.258 3.76312 7393.74 12 271.174 93.536 
-0.4441 295.519 11.8198 7387 36 387.826 66.4747 
-0.4433 240.287 4.80534 7451.44 18 266.859 81.8019 
-0.4425 267.221 5.93774 7380.76 20 380.415 78.8022 
-0.4417 374.607 8.74011 7421.19 21 249.906 77.8293 
-0.4409 268.339 6.85699 7321.24 23 339.584 95.4641 
-0.4401 338.24 6.76424 7410.71 18 292.739 185.674 
-0.4393 248.617 4.41949 7431.38 16 327.21 0 
-0.4385 276.462 7.67885 7434.16 25 305.172 0 
-0.4377 251.436 3.3522 7329.98 12 242.13 0 
-0.4369 207.197 4.604 7352.41 20 397.798 196.588 
-0.4361 217.444 5.79804 7373.73 24 385.146 206.24 
-0.4353 318.946 6.02403 7417.66 17 340.631 271.144 
-0.4345 267.939 6.54909 7357.81 22 481.985 0 
-0.4337 306.205 8.16478 7377.18 24 393.969 205.042 
-0.4329 334.255 8.54137 7337.27 23 288.868 76.0813 
-0.4321 342.743 3.42714 7330.16 9 443.191 208.388 
-0.4313 284.401 6.31949 7306.12 20 278.044 178.855 
-0.4305 313.733 8.71409 7400.86 25 297.614 108.064 
-0.4297 353.385 7.06712 7444.54 18 291.122 82.687 
-0.4289 239.897 6.39673 7333.89 24 329.43 93.967 
-0.4281 287.866 5.43701 7359.6 17 422.313 83.3767 
-0.4273 156.945 2.96426 7358.54 17 273.121 83.7397 
-0.4265 393.791 7.43766 7443.46 17 330.982 83.7397 
-0.4257 318.007 5.65298 7490.45 16 323.683 169.359 
-0.4249 283.072 6.28995 7463.86 20 219.024 157.604 
-0.4241 258.705 8.62278 7495.53 30 328.22 187.968 
-0.4233 231.917 6.69926 7384.03 26 445.447 0 
-0.4225 226.376 5.78468 7443.21 23 422.531 94.9884 
-0.4217 286.986 4.14501 7378.62 13 235.403 93.0719 
-0.4209 234.652 6.25687 7374.13 24 405.757 74.5338 
-0.4201 279.772 5.59498 7449.98 18 375.69 105.881 
-0.4193 195.884 4.78786 7337.88 22 273.988 77.0444 
-0.4185 306.01 6.11968 7471.65 18 323.247 82.1134 
-0.4177 266.653 6.8139 7463.98 23 272.405 113.528 
-0.4169 312.308 6.59262 7445.19 19 247.272 0 
-0.4161 194.248 5.17951 7378.05 24 315.444 149.068 
-0.4153 243.574 5.41231 7350.6 20 341.78 79.6983 
-0.4145 264.984 6.18245 7381.25 21 527.26 155.659 
-0.4137 289.417 7.71715 7358.58 24 398.381 93.536 
-0.4129 246.685 5.48144 7432.17 20 298.888 158.091 
-0.4121 274.867 6.41303 7375.72 21 262.894 227.057 
-0.4113 293.385 9.77868 7390.82 30 223.889 209.761 
-0.4105 319.138 7.80049 7374.56 22 296.128 96.5489 
-0.4097 285.001 6.64946 7315.21 21 360.54 77.8293 
-0.4089 251.142 5.02243 7394.79 18 329.983 162.909 
-0.4081 228.528 4.31628 7471.91 17 314.817 84.0885 
-0.4073 286.478 6.36565 7357.26 20 365.671 158.557 
-0.4065 230.974 5.38895 7398.98 21 343.301 77.8293 
-0.4057 314.045 4.53583 7434.78 13 308.786 209.98 
-0.4049 281.102 5.62157 7424.95 18 348.548 106.768 
-0.4041 220.582 4.90141 7334.97 20 260.049 158.557 
-0.4033 288.366 5.76685 7332.95 18 251.677 104.194 
-0.4025 275.46 7.95706 7369.64 26 395.092 91.267 
-0.4017 229.825 6.12815 7492.54 24 271.629 149.88 
-0.4009 248.277 5.79264 7355.14 21 246.141 0 
-0.4001 308.742 6.86036 7392.33 20 393.859 100.707 
-0.3993 239.289 3.72196 7504.61 14 546.634 0 
-0.3985 291.329 3.23672 7386.39 10 190.711 0 
-0.3977 251.796 3.9165 7561.52 14 219.522 88.5933 
-0.3969 207.655 4.84488 7428.17 21 259.039 0 
-0.3961 284.757 6.01104 7389.65 19 394.584 102.766 
-0.3953 208.836 4.4084 7358.46 19 375.49 0 
-0.3945 204.92 4.78108 7377.43 21 470.155 192.991 
-0.3937 325.417 7.95396 7275.72 22 430.789 77.0444 
-0.3929 289.342 7.07221 7450.64 22 242.407 0 
-0.3921 279.227 7.75567 7474.82 25 333.11 92.5717 
-0.3913 304.951 8.80896 7441.66 26 467.922 164.174 
-0.3905 256.115 5.97552 7426.13 21 488.218 115.375 
-0.3897 352.656 5.0935 7408.15 13 362.159 119.07 
-0.3889 302.272 8.73159 7391.4 26 255.728 0 
-0.3881 203.664 3.16784 7484.75 14 436.09 89.1941 
-0.3873 264.01 7.333 7301.58 25 339.194 185.935 
-0.3865 238.62 4.772 7443.91 18 322.376 82.4105 
-0.3857 234.204 5.20409 7452.61 20 209.788 180.656 
-0.3849 217.725 4.35414 7365.43 18 349.541 210.046 
-0.3841 379.505 5.90293 7357.83 14 308.546 0 
-0.3833 318.246 7.7787 7472.9 22 338.655 173.065 
-0.3825 265.76 7.97214 7404.78 27 261.435 144.55 
-0.3817 201.895 5.60774 7341.97 25 226.582 0 
-0.3809 332.17 7.01188 7331.33 19 404.878 161.267 
-0.3801 339.87 8.68484 7468.03 23 243.427 75.6561 
-0.3793 328.597 6.93647 7374.12 19 249.52 160.171 
-0.3785 208.836 5.10444 7379.24 22 342.923 76.7031 
-0.3777 339.154 4.89848 7440.19 13 236.173 146.025 
-0.3769 286.122 6.9935 7396.73 22 282.212 173.779 
-0.3761 326.17 4.71095 7321.1 13 287.364 91.6271 
-0.3753 233.979 3.63937 7384.46 14 404.116 89.1941 
-0.3745 256.761 5.13479 7430.33 18 235.11 186.825 
-0.3737 269.85 6.29598 7374.56 21 293.284 78.0321 
-0.3729 263.642 8.49443 7345.97 29 307.938 158.775 
-0.3721 314.768 4.89599 7456.8 14 391.29 177.187 
-0.3713 344.949 8.43139 7403.46 22 232.558 213.998 
-0.3705 223.181 3.47141 7410.52 14 241.536 0 
-0.3697 270.467 5.40889 7417.46 18 237.025 186.825 
-0.3689 292.004 7.78613 7416.58 24 325.684 93.536 
-0.3681 284.604 6.6402 7381.08 21 192.118 0 
-0.3673 338.511 9.77839 7418.73 26 332.37 73.1072 
-0.3665 364.112 5.25896 7415.84 13 416.348 212.403 
-0.3657 293.762 8.15937 7408.53 25 302.02 0 
-0.3649 346.606 6.93154 7337.7 18 443.863 0 
-0.3641 248.098 5.2372 7395.67 19 325.091 80.0856 
-0.3633 303.55 7.08224 7404.71 21 362.931 155.659 
-0.3625 299.451 6.32121 7456.77 19 334.94 80.3645 
-0.3617 254.08 5.92805 7414.65 21 456.73 77.8293 
-0.3609 194.49 4.7538 7384.9 22 313.567 98.1572 
-0.3601 235.424 5.23122 7487.03 20 311.362 79.0455 
-0.3593 260.531 3.184 7417.93 11 440.506 0 
-0.3585 302.405 5.03966 7363.83 15 363.032 86.531 
-0.3577 244.18 5.42576 7308.65 20 353.957 101.378 
-0.3569 310.493 6.89926 7400.25 20 283.843 79.2785 
-0.3561 282.494 8.16027 7372.65 26 257.348 91.9888 
-0.3553 311.95 10.3975 7419.53 30 326.589 86.531 
-0.3545 286.792 4.77946 7364.31 15 254.335 87.039 
-0.3537 276.468 5.52889 7374.06 18 444.508 105.023 
-0.3529 161.106 2.86387 7461.45 16 347.46 248.078 
-0.3521 321.311 8.92456 7347.15 25 271.192 220.862 
-0.3513 243.77 8.39581 7448.1 31 300.487 168.513 
-0.3505 337.464 8.62336 7389.67 23 346.993 206.087 
-0.3497 314.207 6.28361 7306.97 18 342.664 82.4105 
-0.3489 220.549 5.63577 7441.52 23 280.041 75.6561 
-0.3481 292.298 7.79397 7430.72 24 336.193 169.219 
-0.3473 305.866 8.8354 7406.8 26 369.052 72.9075 
-0.3465 283.243 5.66438 7318.66 18 295.504 105.023 
-0.3457 261.131 5.80244 7390.18 20 347.022 79.0455 
-0.3449 213.332 4.50331 7283.79 19 298.824 80.3645 
-0.3441 237.387 5.53858 7355.6 21 268.022 77.8293 
-0.3433 303.714 8.09835 7358.79 24 344.063 149.359 
-0.3425 190.2 5.28289 7380.01 25 354.324 73.7654 
-0.3417 276.813 6.45842 7413.59 21 292.263 0 
-0.3409 387.233 6.02313 7344.78 14 293.272 0 
-0.3401 322.889 7.53345 7305.51 21 367.954 77.8293 
-0.3393 323.668 7.55162 7352.59 21 244.577 155.659 
-0.3385 265.464 6.78351 7325.9 23 318.889 75.4912 
-0.3377 268.705 7.16486 7406.92 24 170.136 74.8155 
-0.3369 283.93 6.30902 7400.15 20 454.026 121.119 
-0.3361 318.623 9.20389 7419.6 26 355.405 180.697 
-0.3353 268.392 6.85835 7390.32 23 410.245 95.9469 
-0.3345 332.332 7.38453 7362.27 20 479.896 78.8022 
-0.3337 238.009 6.08196 7396.33 23 295.646 188.503 
-0.3329 274.673 7.324 7491.54 24 380.563 0 
-0.3321 302.557 7.73136 7467.35 23 362.432 151.312 
-0.3313 274.657 6.10299 7377.35 20 228.42 275.339 
-0.3305 261.672 7.26806 7429.46 25 293.855 0 
-0.3297 317.098 8.45523 7396.01 24 302.506 168.07 
-0.3289 275.851 6.74246 7432.42 22 278.867 76.8802 
-0.3281 323.689 8.27137 7384.79 23 321.319 75.6561 
-0.3273 313.222 6.61191 7364.15 19 334.291 103.523 
-0.3265 448.475 9.46703 7321.69 19 244.042 160.171 
-0.3257 289.274 4.82082 7397.09 15 439.04 174.022 
-0.3249 198.115 4.62229 7353.23 21 436.552 98.8171 
-0.3241 403.401 4.03367 7332.4 9 291.717 0 
-0.3233 174.18 3.87035 7367.86 20 424.992 79.4976 
-0.3225 209.34 5.11678 7410.81 22 348.304 0 
-0.3217 256.171 5.12299 7451.94 18 357.857 187.995 
-0.3209 249.466 3.88026 7273.05 14 218.808 115.375 
-0.3201 236.417 7.61723 7425.21 29 397.734 70.7524 
-0.3193 237.558 7.12616 7353.73 27 377.298 195.678 
-0.3185 292.218 8.76582 7474.94 27 418.784 72.1927 
-0.3177 248.807 7.74003 7372.31 28 345.001 208.567 
-0.3169 261.291 5.22538 7395.27 18 432.376 81.8019 
-0.3161 219.908 2.68754 7496.76 11 280.196 0 
-0.3153 260.611 5.21179 7448.37 18 199.751 375.936 
-0.3145 338.696 8.27855 7470.29 22 328.271 175.202 
-0.3137 275.799 4.28985 7391.24 14 404.324 0 
-0.3129 211.958 5.18076 7336.05 22 331.273 76.7031 
-0.3121 381.12 5.92804 7443.02 14 341.064 115.375 
-0.3113 232.715 4.1368 7430.59 16 275.07 169.359 
-0.3105 252.243 7.2864 7370.43 26 249.703 91.267 
-0.3097 268.419 8.35011 7429.8 28 359.405 89.1941 
-0.3089 278.365 6.49464 7426.21 21 250.397 98.2313 
-0.3081 280.763 7.48639 7340.68 24 350.917 149.068 
-0.3073 147.664 2.13275 7296.79 13 276.079 0 
-0.3065 230.448 5.12063 7386.56 20 353.019 178.855 
-0.3057 205.041 5.9229 7377.8 26 233.521 145.815 
-0.3049 228.805 6.35517 7416.1 25 483.148 92.5717 
-0.3041 308.261 7.87714 7528.18 23 212.159 75.6561 
-0.3033 203.713 4.07393 7534.09 18 476.92 104.194 
-0.3025 250.521 5.84499 7414.47 21 317.1 98.2313 
-0.3017 308.399 5.48218 7368.68 16 357.282 193.869 
-0.3009 271.193 4.51951 7432.37 15 289.284 0 
-0.3001 175.434 4.09312 7379.59 21 325.787 98.8171 
-0.2993 355.297 9.47379 7379.93 24 228.814 94.4034 
-0.2985 279.663 4.66066 7477.27 15 283.272 87.039 
-0.2977 241.275 4.82511 7444.66 18 316.001 126.038 
-0.2969 257.024 5.4256 7359.7 19 358.419 321.406 
-0.2961 364.627 4.05107 7458.63 10 199.74 0 
-0.2953 252.867 3.37128 7413.71 12 428.086 0 
-0.2945 283.037 6.60365 7462.47 21 337.796 231.063 
-0.2937 261.77 4.94413 7473.74 17 251.32 83.0049 
-0.2929 314.964 6.29876 7435.8 18 317.104 0 
-0.2921 241.614 4.02657 7386.32 15 488.812 173.062 
-0.2913 301.253 6.02455 7448.65 18 265.17 0 
-0.2905 281.155 8.12158 7341.87 26 360.384 73.0127 
-0.2897 202.611 5.85272 7460.79 26 274.125 191.864 
-0.2889 277.606 7.40221 7517.15 24 281.044 110.639 
-0.2881 365.647 5.28112 7429.97 13 368.768 0 
-0.2873 413.599 9.19032 7337.57 20 344.506 0 
-0.2865 240.504 6.4129 7397.84 24 291.097 171.392 
-0.2857 288.501 4.80795 7516.51 15 332.966 87.039 
-0.2849 231.091 6.16191 7418.34 24 410.546 93.536 
-0.2841 255.153 5.95308 7396.19 21 228.48 77.8293 
-0.2833 225.758 5.51806 7431.8 22 313.901 97.0757 
-0.2825 372.317 10.3413 7436.22 25 325.774 0 
-0.2817 228.174 4.05609 7495.17 16 395.791 169.359 
-0.2809 237.831 6.60588 7359.71 25 349.708 92.1796 
-0.2801 299.583 8.6539 7298.58 26 190.283 106.962 
-0.2793 241.992 5.37716 7361.37 20 260.496 102.065 
-0.2785 279.607 5.90233 7425.77 19 358.902 217.243 
-0.2777 315.069 5.9508 7386.76 17 393.241 83.3767 
-0.2769 297.424 8.92198 7352.73 27 262.786 162.144 
-0.2761 268.741 8.95727 7432.47 30 347.382 170.927 
-0.2753 267.723 7.43614 7467.46 25 219.848 73.9933 