ITEM: TIMESTEP
0
ITEM: NUMBER OF CELLS
5000
ITEM: BOX BOUNDS or pp pp
-0.5 0.5
0 0.0002
-0.5 0.5
ITEM: CELLS xc c_1[1] c_1[2] c_2[1] c_2[2] c_2[3] c_3[1] 
-0.4999 247.785 5.50588 7412.17 20 209.647 197.895 
-0.4991 200.279 4.45027 7513.38 20 338.683 180.656 
-0.4983 205.734 4.57149 7385.66 20 502.988 237.784 
-0.4975 361.885 8.04121 7343.76 20 316.469 0 
-0.4967 291.684 6.48132 7407.79 20 234.825 157.604 
-0.4959 270.017 5.99988 7370.85 20 315.523 158.091 
-0.4951 330.634 7.34682 7383.18 20 241.036 0 
-0.4943 239.233 5.31584 7375.08 20 309.534 178.855 
-0.4935 244.591 5.43491 7426.71 20 409.615 100.707 
-0.4927 317.852 7.06279 7523.74 20 420.741 100.052 
-0.4919 233.954 5.19855 7383.81 20 268.425 78.8022 
-0.4911 321.691 7.1481 7356.34 20 320.129 0 
-0.4903 319.389 7.09695 7390.98 20 292.556 0 
-0.4895 331.157 7.35844 7450.74 20 257.548 0 
-0.4887 194.767 4.3278 7376.11 20 282.067 100.052 
-0.4879 347.378 7.71887 7406.81 20 424.874 78.8022 
-0.4871 344.695 7.65925 7383.42 20 302.105 251.685 
-0.4863 237.938 5.28707 7396.3 20 279.542 78.8022 
-0.4855 216.928 4.82022 7363.2 20 489.911 157.604 
-0.4847 373.145 8.29142 7425.21 20 282.459 179.752 
-0.4839 351.882 7.81895 7435.67 20 231.369 0 
-0.4831 306.948 6.8205 7434.39 20 331.749 178.855 
-0.4823 227.976 5.06572 7336.24 20 315.939 117.785 
-0.4815 302.292 6.71704 7395.53 20 181.393 78.8022 
-0.4807 263.03 5.84462 7399.5 20 276.895 0 
-0.4799 321.728 7.14891 7427.25 20 351.758 119.96 
-0.4791 332.055 7.37839 7485.71 20 346.798 158.091 
-0.4783 273.433 6.07579 7365.76 20 333.177 0 
-0.4775 265.432 5.89801 7493.99 20 261.528 179.752 
-0.4767 292.669 6.50322 7416.44 20 277.145 158.091 
-0.4759 238.538 5.30041 7359.56 20 258.041 0 
-0.4751 367.559 8.16729 7389.33 20 219.071 79.0455 
-0.4743 195.966 4.35443 7355.26 20 279.31 101.378 
-0.4735 334.812 7.43964 7428.07 20 362.209 181.562 
-0.4727 262.269 5.82772 7507.84 20 353.233 79.4976 
-0.4719 324.607 7.21289 7432.22 20 310.004 102.065 
-0.4711 326.753 7.26057 7333.37 20 314.418 158.557 
-0.4703 350.419 7.78645 7511.9 20 228.357 180.656 
-0.4695 282.206 6.27072 7395.39 20 259.992 79.2785 
-0.4687 272.634 5.75512 7384.47 19 308.51 201.968 
-0.4679 215.367 5.02482 7428.15 21 356.41 98.8171 
-0.4671 273.924 6.08669 7358.82 20 305.192 79.2785 
-0.4663 204.385 4.54151 7401.6 20 345.919 79.0455 
-0.4655 257.387 5.71924 7366.13 20 238.521 79.0455 
-0.4647 308.787 6.86137 7407.86 20 316.497 79.0455 
-0.4639 152.731 3.39375 7433.61 20 322.669 0 
-0.4631 276.946 6.15385 7310.56 20 379.52 79.2785 
-0.4623 292.247 6.49384 7418.74 20 220.023 100.707 
-0.4615 230.352 5.11851 7386.52 20 297.713 118.849 
-0.4607 295.159 6.55855 7525.21 20 384.168 158.557 
-0.4599 278.948 6.19832 7354.64 20 359.961 100.707 
-0.4591 358.502 7.96606 7367.86 20 226.618 197.895 
-0.4583 248.619 5.52442 7466.07 20 357.909 179.752 
-0.4575 186.568 4.14561 7366.64 20 407.28 157.604 
-0.4567 183.705 4.08199 7417.53 20 208.882 79.2785 
-0.4559 331.546 7.36707 7415.06 20 230.597 79.2785 
-0.4551 287.955 6.39848 7287.05 20 434.82 259.884 
-0.4543 289.856 6.4407 7439.91 20 272.036 178.855 
-0.4535 323.725 7.19329 7495.25 20 270.108 158.091 
-0.4527 298.786 6.63913 7457.11 20 317.143 78.8022 
-0.4519 266.761 5.63115 7380.87 19 274.783 0 
-0.4511 257.553 6.00907 7483.47 21 198.705 77.6162 
-0.4503 314.345 6.98486 7387.73 20 259.26 79.0455 
-0.4495 301.51 6.69967 7482.95 20 377.688 0 
-0.4487 364.399 8.09709 7425.38 20 217.407 79.0455 
-0.4479 226.678 5.03686 7437.78 20 259.432 78.8022 
-0.4471 281.472 6.25441 7335.16 20 362.844 78.8022 
-0.4463 207.63 4.61361 7453.57 20 359.575 0 
-0.4455 197.192 4.16259 7540.83 19 454.348 80.6333 
-0.4447 296.642 6.92107 7531.44 21 291.688 77.8293 
-0.4439 316.18 7.02563 7495.64 20 342.55 101.378 
-0.4431 226.502 4.78131 7339.82 19 274.479 0 
-0.4423 218.083 5.08817 7344.99 21 335.645 176.646 
-0.4415 298.549 6.63386 7374.95 20 212.616 200.105 
-0.4407 298.248 6.62717 7334.44 20 326.259 79.2785 
-0.4399 287.581 6.39016 7423.38 20 209.059 117.785 
-0.4391 352.981 7.45121 7337.92 19 364.22 80.6333 
-0.4383 272.576 6.35958 7355.2 21 303.381 178.247 
-0.4375 204.743 4.54946 7466.48 20 346.022 158.091 
-0.4367 176.835 3.92933 7542.99 20 149.06 78.8022 
-0.4359 254.772 5.66113 7373.41 20 278.659 0 
-0.4351 360.62 8.0131 7372.86 20 322.651 100.052 
-0.4343 261.022 5.80001 7370.27 20 421.495 100.052 
-0.4335 249.324 5.54007 7334.43 20 387.701 201.413 
-0.4327 262.632 5.83579 7472.71 20 300.269 78.8022 
-0.4319 223.949 4.97624 7346.37 20 235.135 117.785 
-0.4311 277.418 6.16433 7402.91 20 210.586 100.707 
-0.4303 277.279 6.16125 7432.94 20 328.928 78.8022 
-0.4295 205.593 4.56835 7395.21 20 260.179 100.707 
-0.4287 209.25 4.64961 7490.05 20 266.696 78.8022 
-0.4279 236.046 5.24503 7379.51 20 261.543 158.995 
-0.4271 290.277 6.12756 7507.78 19 430.896 80.0856 
-0.4263 271.483 6.33408 7393.26 21 253.998 192.991 
-0.4255 239.732 5.32692 7397.27 20 237.42 181.562 
-0.4247 239.087 5.31259 7368.1 20 260.087 221.337 
-0.4239 310.076 6.89001 7327.58 20 243.294 78.8022 
-0.4231 262.381 5.83021 7341.39 20 261.937 102.065 
-0.4223 309.853 6.88505 7469.78 20 249.338 196.588 
-0.4215 271.193 6.02601 7341.35 20 323.74 199.238 
-0.4207 274.285 6.09472 7506.14 20 349.603 0 
-0.4199 247.06 5.48977 7419.65 20 263.369 157.604 
-0.4191 300.772 6.68327 7340.8 20 344.3 100.707 
-0.4183 313.263 6.96082 7351.92 20 291.65 0 
-0.4175 287.359 6.38522 7426.15 20 315.757 121.119 
-0.4167 289.071 6.42327 7397.57 20 272.587 317.063 
-0.4159 372.279 8.27218 7389.03 20 421.124 118.849 
-0.4151 255.203 5.6707 7503.71 20 202.039 158.091 
-0.4143 281.349 6.25168 7452.54 20 253.332 118.849 
-0.4135 352.985 7.84346 7394.69 20 356.661 0 
-0.4127 223.37 4.96337 7380.02 20 346.056 181.562 
-0.4119 236.236 5.24926 7497.81 20 144.786 158.995 
-0.4111 318.229 7.07117 7370.36 20 243.183 79.0455 
-0.4103 375.985 8.35453 7305.31 20 293.268 0 
-0.4095 307.091 6.82368 7362.62 20 351.437 158.091 
-0.4087 268.042 5.95599 7397.98 20 241.972 100.707 
-0.4079 347.649 7.72489 7404.62 20 277.119 118.849 
-0.4071 282.737 6.28252 7355.18 20 344.926 0 
-0.4063 241.913 5.3754 7469.56 20 197.638 100.052 
-0.4055 229.493 5.09941 7392.92 20 221.149 78.8022 
-0.4047 343.83 7.25803 7317.54 19 233.561 102.032 
-0.4039 267.72 6.24627 7388.3 21 295.826 98.8171 
-0.4031 247.231 5.21888 7383.09 19 290.378 161.776 
-0.4023 205.759 4.80064 7419.45 21 274.467 98.2313 
-0.4015 224.694 4.99279 7420.68 20 303.576 79.0455 
-0.4007 289.724 6.43777 7458.96 20 254.747 0 
-0.3999 315.309 7.00627 7394.57 20 325.888 0 
-0.3991 226.156 5.02527 7479.11 20 300.541 158.557 
-0.3983 242.847 5.39616 7374.33 20 314.407 0 
-0.3975 276.329 6.14013 7424.54 20 217.995 100.707 
-0.3967 318.816 7.08421 7413.92 20 423.255 79.0455 
-0.3959 310.854 6.9073 7458.99 20 333.363 0 
-0.3951 211.238 4.69379 7400.91 20 217.22 79.4976 
-0.3943 324.557 7.21178 7482.02 20 308.702 79.0455 
-0.3935 214.994 4.77725 7383.36 20 302.748 78.8022 
-0.3927 305.726 6.79334 7437.28 20 225.466 179.752 
-0.3919 335.092 7.07357 7508.66 19 274.834 80.0856 
-0.3911 286.405 6.68223 7254.27 21 297.137 77.8293 
-0.3903 267.324 5.94004 7437.29 20 213.171 78.8022 
-0.3895 394.945 8.77582 7401.12 20 334.386 100.707 
-0.3887 263.625 5.85785 7314.05 20 264.99 0 
-0.3879 248.072 5.51225 7418.46 20 317.685 158.995 
-0.3871 246.905 5.48632 7387.35 20 289.512 0 
-0.3863 408.035 9.06669 7475.39 20 248.835 178.855 
-0.3855 357.927 7.95327 7359.65 20 248.908 0 
-0.3847 211.473 4.69901 7370.76 20 268.881 78.8022 
-0.3839 295.72 6.57101 7436.21 20 284.898 0 
-0.3831 268.203 5.66158 7357.31 19 318.202 102.766 
-0.3823 276.536 6.45197 7448.87 21 252.424 0 
-0.3815 258.515 5.7443 7306.6 20 288.379 78.8022 
-0.3807 203.938 4.53157 7431.43 20 214.052 0 
-0.3799 332.587 7.39022 7372.96 20 314.47 101.378 
-0.3791 274.883 6.10799 7389.41 20 493.71 0 
-0.3783 265.483 5.89914 7399.09 20 213.727 79.0455 
-0.3775 226.866 5.04105 7364.89 20 230.929 199.238 
-0.3767 167.118 3.71343 7427.14 20 381.24 100.052 
-0.3759 378.915 8.41964 7516.86 20 345.424 79.0455 
-0.3751 360.136 8.00236 7413.99 20 330.032 79.4976 
-0.3743 246.331 5.47357 7438.81 20 267.93 221.337 
-0.3735 313.232 6.96012 7435.14 20 251.012 79.0455 
-0.3727 348.917 7.75306 7403.73 20 175.994 79.0455 
-0.3719 301.419 6.69765 7342.64 20 183.939 101.378 
-0.3711 158.825 3.52914 7353.58 20 363.746 79.2785 
-0.3703 310.921 6.90879 7365.86 20 279.881 0 
-0.3695 224.26 4.98314 7418.04 20 512.745 79.4976 
-0.3687 235.539 5.23376 7368.61 20 275.052 117.785 
-0.3679 268.387 5.96365 7396.1 20 294.744 78.8022 
-0.3671 259.75 5.77174 7421.81 20 231.148 0 
-0.3663 320.212 7.11522 7479.93 20 334.663 79.0455 
-0.3655 413.454 9.18711 7419.5 20 259.395 0 
-0.3647 269.331 5.98463 7418.7 20 298.875 158.557 
-0.3639 259.489 5.76595 7374.14 20 305.863 79.2785 
-0.3631 387.523 8.61091 7459.4 20 249.352 121.119 
-0.3623 312.296 6.93933 7398.52 20 245.611 79.2785 
-0.3615 199.547 4.21231 7462.73 19 301.717 182.117 
-0.3607 260.233 6.0716 7407.9 21 401.368 332.255 
-0.3599 291.111 6.46859 7435.04 20 280.133 119.96 
-0.3591 188.061 4.17879 7403.65 20 372.16 0 
-0.3583 282.304 6.2729 7379.6 20 272.302 219.556 
-0.3575 211.913 4.47335 7341.1 19 274.483 102.032 
-0.3567 261.543 6.10216 7408.87 21 251.78 77.8293 
-0.3559 288.679 6.41455 7401.74 20 195.661 157.604 
-0.3551 303.019 6.7332 7336.32 20 374.486 79.0455 
-0.3543 284.921 6.33105 7351.91 20 245.293 178.855 
-0.3535 343.192 7.62585 7391.16 20 446.523 78.8022 
-0.3527 191.834 4.26262 7358.61 20 223.593 0 
-0.3519 360.848 8.01819 7382.14 20 284.656 159.75 
-0.3511 276.969 6.15435 7393.97 20 385.948 0 
-0.3503 333.92 7.41984 7372.26 20 374.554 79.0455 
-0.3495 241.055 5.35634 7509.63 20 331.166 0 
-0.3487 346.024 7.68879 7424.25 20 458.992 78.8022 
-0.3479 313.006 6.60734 7338.08 19 266.791 0 
-0.3471 189.652 4.42485 7364.15 21 446.567 194.161 
-0.3463 228.435 5.07591 7408.32 20 246.043 78.8022 
-0.3455 309.951 6.88722 7236.47 20 235.333 79.2785 
-0.3447 331.376 7.36329 7416.63 20 197.57 101.378 
-0.3439 335.913 7.46411 7335.68 20 414.806 100.052 
-0.3431 230.873 5.13009 7438.86 20 185.979 79.0455 
-0.3423 293.36 6.51858 7415.92 20 177.531 0 
-0.3415 402.122 8.9353 7342.09 20 238.185 79.0455 
-0.3407 323.408 7.18624 7338.85 20 315.788 79.4976 
-0.3399 209.994 4.66614 7437.12 20 339.959 100.707 
-0.3391 290.612 6.13462 7333.26 19 307.038 81.1229 
-0.3383 286.537 6.6853 7389.92 21 319.026 99.4156 
-0.3375 229.464 5.09877 7436.36 20 267.725 78.8022 
-0.3367 380.306 8.02801 7444.91 19 218.457 203.483 
-0.3359 243.864 5.68969 7438.83 21 295.468 178.247 
-0.3351 379.4 8.00888 7390.77 19 199.841 80.0856 
-0.3343 255.947 5.97159 7454.23 21 222.399 156.787 
-0.3335 239.134 5.31364 7435.65 20 234.73 79.2785 
-0.3327 277.277 6.1612 7478.24 20 244.679 101.378 
-0.3319 405.628 9.0132 7349.48 20 237.681 78.8022 
-0.3311 308.138 6.84694 7397.75 20 226.261 119.96 
-0.3303 298.713 6.63752 7451.32 20 299.528 79.2785 
-0.3295 350.338 7.78463 7310.3 20 308.056 79.2785 
-0.3287 227.374 4.79971 7358.85 19 282.596 160.729 
-0.3279 296.029 6.90676 7424.87 21 297.083 176.646 
-0.3271 279.025 6.20004 7457.83 20 309.856 0 
-0.3263 283.62 6.30215 7369.44 20 303.829 79.2785 
-0.3255 269.251 5.98285 7353.92 20 397.688 79.2785 
-0.3247 241.103 5.08953 7391.62 19 366.67 160.171 
-0.3239 240.45 5.61004 7327.22 21 201.164 196.463 
-0.3231 308.301 6.85056 7371.35 20 237.837 0 
-0.3223 313.963 6.97638 7370 20 140.643 0 
-0.3215 340.56 7.56738 7317.52 20 325.882 100.707 
-0.3207 263.176 5.84786 7376.82 20 307.692 158.091 
-0.3199 276.014 6.13313 7518.25 20 402.561 79.0455 
-0.3191 374.075 7.89647 7364.49 19 426.197 0 
-0.3183 338.959 7.90838 7474.21 21 475.844 115.375 
-0.3175 298.076 6.62336 7353.12 20 281.869 158.091 
-0.3167 259.049 5.46835 7362.04 19 391.255 137.157 
-0.3159 224.871 4.99671 7384.98 20 290.49 0 
-0.3151 227.562 5.30934 7336.71 21 460.706 115.375 
-0.3143 378.286 7.98536 7337.24 19 247.519 244.071 
-0.3135 249.432 5.81958 7346.81 21 332.261 77.6162 
-0.3127 268.562 5.96755 7407.68 20 201.941 79.2785 
-0.3119 214.271 4.76119 7358.55 20 239.941 100.052 
-0.3111 338.815 7.5286 7358.13 20 306.421 158.091 
-0.3103 335.73 7.08704 7382.46 19 331.172 80.3645 
-0.3095 292.99 6.83586 7444.95 21 262.156 233.438 
-0.3087 282.055 5.954 7388.13 19 318.872 102.032 
-0.3079 315.665 7.36491 7440.46 21 280.911 98.8171 
-0.3071 298.149 6.29373 7446.32 19 378.077 182.117 
-0.3063 245.264 5.72234 7392 21 264.284 213.606 
-0.3055 335.134 7.44679 7484.24 20 293.013 0 
-0.3047 252.056 5.60077 7476.45 20 227.464 158.091 
-0.3039 316.166 6.67405 7460.74 19 171.55 160.729 
-0.3031 286.799 6.37277 7411.17 20 224.57 100.052 
-0.3023 288.568 6.7327 7510 21 294.886 178.247 
-0.3015 232.92 5.17558 7378.31 20 327.539 79.2785 
-0.3007 286.924 6.37556 7372.97 20 281.387 0 
-0.2999 235.846 5.24058 7354.02 20 307.905 158.091 
-0.2991 248.611 5.52422 7421.92 20 448.558 79.0455 
-0.2983 261.287 5.80588 7457.51 20 272.644 178.855 
-0.2975 308.209 6.84851 7306.71 20 321.281 117.785 
-0.2967 339.28 7.53893 7411.72 20 123.886 201.413 
-0.2959 295.136 6.55804 7463.35 20 340.268 199.238 
-0.2951 333.874 7.04787 7367.81 19 327.332 0 
-0.2943 348.237 8.12486 7442 21 310.434 77.8293 
-0.2935 212.678 4.72579 7312.3 20 239.918 159.397 
-0.2927 357.262 7.54157 7485.58 19 274.919 0 
-0.2919 182.802 4.06192 7258.53 20 264.069 79.0455 
-0.2911 270.935 6.3213 7406.54 21 403.295 98.2313 
-0.2903 404.362 8.98506 7359.71 20 205.976 158.557 
-0.2895 369.095 8.20142 7397.32 20 312.531 79.2785 
-0.2887 209.544 4.65615 7409.74 20 211.681 102.767 
-0.2879 247.562 5.50093 7410.52 20 410.82 0 
-0.2871 228.999 4.83403 7390.91 19 291.32 0 
-0.2863 335.655 7.83131 7437.95 21 253.288 77.6162 
-0.2855 352.407 7.43908 7374.24 19 255.606 80.3645 
-0.2847 323.294 7.5429 7433.07 21 266.289 216.809 
-0.2839 216.328 4.80689 7267.63 20 258.719 0 
-0.2831 333.623 7.41324 7415.75 20 300.629 0 
-0.2823 279.568 6.2121 7364.71 20 358.392 100.707 
-0.2815 193.215 4.07864 7337.14 19 220.344 182.117 
-0.2807 299.754 6.66063 7323.51 20 402.553 79.4976 
-0.2799 445.085 9.88996 7424.91 20 210.652 0 
-0.2791 300.933 7.02117 7358.67 21 291.418 156.064 
-0.2783 296.831 6.5957 7367.31 20 327.847 157.604 
-0.2775 262.422 5.83111 7379.91 20 298.805 101.378 
-0.2767 324.972 7.221 7309.14 20 334.871 100.707 
-0.2759 399.38 8.87438 7423.12 20 212.301 158.995 
-0.2751 310.416 6.89756 7475.44 20 358.958 79.2785 
-0.2743 293.612 6.52417 7415.44 20 299.662 117.785 
-0.2735 291.221 6.47103 7424.48 20 234.815 0 
-0.2727 342.519 7.23036 7391.78 19 300.977 0 
-0.2719 327.26 7.63543 7543.7 21 289.717 232.798 
-0.2711 217.967 4.84331 7396.45 20 304.728 100.707 
-0.2703 204.998 4.55513 7373.47 20 300.784 133.899 
-0.2695 336.18 7.47004 7386.57 20 269.432 79.0455 
-0.2687 334.463 7.43189 7383.78 20 326.437 0 
-0.2679 243.761 5.41647 7448.22 20 264.789 179.752 
-0.2671 327.077 6.90438 7331.13 19 405.665 80.0856 
-0.2663 193.015 4.5033 7371.6 21 314.512 0 
-0.2655 237.33 5.00989 7421.6 19 415.561 161.267 
-0.2647 232.39 5.42198 7476.6 21 229.329 115.375 
-0.2639 297.716 6.28458 7325.95 19 226.378 0 
-0.2631 302.017 7.04648 7396.77 21 354.083 155.659 
-0.2623 244.578 5.43461 7425.79 20 236.23 0 
-0.2615 352.444 7.83145 7373.14 20 300.839 79.0455 
-0.2607 300.468 6.67651 7451.03 20 366.132 100.707 
-0.2599 314.511 6.98855 7425.17 20 406.916 179.752 
-0.2591 355.098 7.4959 7369.73 19 248.616 80.0856 
-0.2583 280.141 6.53609 7382.55 21 390.492 78.3935 
-0.2575 262.253 5.82736 7451.11 20 305.971 100.707 
-0.2567 326.307 7.25066 7442.16 20 256.637 100.052 
-0.2559 261.836 5.81809 7460.58 20 363.096 221.337 
-0.2551 297.518 6.61096 7444.67 20 409.787 79.2785 
-0.2543 280.393 6.23044 7459.24 20 355.388 79.0455 
-0.2535 299.981 6.66569 7403.3 20 259.047 196.588 
-0.2527 263.458 5.85413 7450.38 20 247.284 180.656 
-0.2519 270.276 5.70535 7406.27 19 319.66 80.0856 
-0.2511 362.711 8.46256 7345.28 21 350.238 98.2313 
-0.2503 287.286 6.06442 7399.49 19 203.438 184.156 
-0.4993 269.05 6.2773 7436.66 21 321.282 232.798 
-0.4985 263.3 5.5581 7411.05 19 255.792 186.223 
-0.4977 285.129 6.65246 7399.3 21 232.669 0 
-0.4969 275.019 6.11102 7411.75 20 241.873 0 
-0.4961 261.729 5.81572 7423.59 20 423.609 78.8022 
-0.4953 221.822 4.92896 7437.66 20 247.948 79.0455 
-0.4945 273.902 5.7819 7407.04 19 422.521 0 
-0.4937 193.479 4.51413 7389.43 21 328.568 0 
-0.4929 235.891 4.97951 7349.59 19 343.497 182.117 
-0.4921 254.379 5.93502 7389.04 21 295.141 78.0321 
-0.4913 312.253 6.93838 7385.85 20 306.355 79.0455 
-0.4905 335.647 7.45821 7337.93 20 267.484 79.4976 
-0.4897 254.438 5.6537 7423.04 20 269.722 0 
-0.4889 329.251 7.31607 7373.07 20 317.316 0 
-0.4881 260.775 5.79451 7431.79 20 319.928 200.105 
-0.4873 176.454 3.72483 7408.83 19 329.39 226.372 
-0.4865 272.115 6.34882 7440.76 21 318.989 78.0321 
-0.4857 239.664 5.32541 7357.14 20 185.52 79.2785 
-0.4849 306.396 6.80823 7472.57 20 346.402 233.951 
-0.4841 323.593 6.83084 7465.13 19 354.011 103.523 
-0.4833 308.339 7.19398 7454.41 21 251.687 198.831 
-0.4825 312.501 6.9439 7452.7 20 245.697 159.345 
-0.4817 320.624 7.12439 7414.9 20 308.603 79.0455 
-0.4809 293.501 6.19561 7321.41 19 264.521 162.246 
-0.4801 186.521 4.14458 7426.76 20 303.449 200.105 
-0.4793 270.17 6.30344 7422.75 21 339.883 0 
-0.4785 313.225 6.95997 7359.12 20 243.684 79.2785 
-0.4777 255.886 5.68589 7408.87 20 253.559 79.0455 
-0.4769 227.087 5.04597 7384.11 20 308.614 178.855 
-0.4761 287.588 6.07079 7539.1 19 274.618 200.499 
-0.4753 336.381 7.84824 7451.06 21 268.27 98.8171 
-0.4745 208.419 4.63115 7459.52 20 309.288 79.2785 
-0.4737 327.961 6.92304 7460.06 19 205.94 182.117 
-0.4729 282.896 6.60035 7367.51 21 316.811 0 
-0.4721 222.178 4.93688 7451.43 20 315.25 0 
-0.4713 214.013 4.75544 7330.21 20 326.85 100.707 
-0.4705 294.753 6.54951 7364.47 20 354.963 200.617 
-0.4697 274.162 6.09197 7453.55 20 369.892 0 
-0.4689 252.613 5.61316 7420.37 20 387.461 100.707 
-0.4681 203.243 4.29034 7482.22 19 348.242 137.157 
-0.4673 254.302 5.65068 7330.55 20 311.194 257.152 
-0.4665 245.467 5.45437 7390.29 20 326.765 280.063 
-0.4657 342.159 7.98305 7447.29 21 254.739 155.232 
-0.4649 162.845 3.61847 7412.27 20 469.707 100.052 
-0.4641 272.293 6.05046 7386.48 20 341.692 236.356 
-0.4633 290.491 6.45481 7401.39 20 449.193 79.2785 
-0.4625 264.964 5.88761 7529.41 20 325.053 78.8022 
-0.4617 344.659 7.65845 7478.56 20 326.135 0 
-0.4609 261.911 5.81975 7456.49 20 307.322 0 
-0.4601 323.383 7.18568 7359.3 20 247.097 100.052 
-0.4593 248.96 5.53198 7458.24 20 187.226 0 
-0.4585 358.658 7.57104 7377.02 19 387.066 184.156 
-0.4577 194.35 4.53445 7342.08 21 373.346 0 
-0.4569 311.205 6.56934 7388.61 19 335.396 0 
-0.4561 319.825 7.10664 7432.64 20 440.284 0 
-0.4553 325.75 7.23829 7413.13 20 313.216 0 
-0.4545 186.822 4.35882 7318.91 21 433.252 229.148 
-0.4537 327.765 7.28305 7478.04 20 223.2 158.091 
-0.4529 156.984 3.31384 7398.7 19 292.229 0 
-0.4521 431.436 9.58666 7390.55 20 222.525 118.849 
-0.4513 373.01 8.28842 7379.15 20 229.36 157.604 
-0.4505 367.933 8.58438 7300.34 21 257.345 77.8293 
-0.4497 342.197 7.22355 7463.7 19 273.004 152.947 
-0.4489 387.796 9.04783 7455.82 21 290.001 176.646 
-0.4481 226.578 4.7829 7367.84 19 470.34 161.267 
-0.4473 366.094 8.54147 7408.93 21 234.266 98.8171 
-0.4465 310.427 6.89779 7389.09 20 220.756 0 
-0.4457 277.16 6.15859 7422.21 20 305.854 79.2785 
-0.4449 348.451 7.35558 7353.63 19 246.531 0 
-0.4441 231.31 5.39677 7358.36 21 301.86 78.0321 
-0.4433 243.746 5.14533 7355.8 19 316.034 102.032 
-0.4425 300.716 7.01613 7428.07 21 316.548 0 
-0.4417 214.68 4.77027 7441.77 20 257.146 79.0455 
-0.4409 282.885 5.97152 7419.67 19 248.003 80.3645 
-0.4401 307.289 7.16949 7383.84 21 291.447 192.991 
-0.4393 230.29 5.11714 7346.27 20 368.774 79.0455 
-0.4385 277.587 6.1681 7467.61 20 268.255 0 
-0.4377 325.96 6.8808 7374.92 19 331.629 0 
-0.4369 361.182 8.42689 7472.55 21 266.664 192.991 
-0.4361 437.854 9.72928 7396.43 20 255.04 101.378 
-0.4353 317.827 7.06224 7312.45 20 402.225 102.767 
-0.4345 310.147 6.547 7420.68 19 186.79 81.1229 
-0.4337 277.712 6.47941 7392.2 21 209.733 77.6162 
-0.4329 283.316 6.29539 7395.07 20 183.267 0 
-0.4321 195.904 4.1354 7328.23 19 374.555 0 
-0.4313 312.374 7.28812 7412.2 21 388.215 78.0321 
-0.4305 281.736 6.26027 7321.64 20 287.264 157.604 
-0.4297 322.381 7.16342 7536.82 20 230.979 182.465 
-0.4289 248.616 5.24812 7274.96 19 276.698 121.603 
-0.4281 297.531 6.9418 7475.96 21 256.655 155.232 
-0.4273 279.387 5.89767 7415.58 19 254.382 204.064 
-0.4265 224.178 5.23039 7503.8 21 264.231 78.2215 
-0.4257 368.199 8.18153 7371.32 20 308.876 256.89 
-0.4249 289.735 6.11612 7455.27 19 282.547 80.0856 
-0.4241 236.416 5.5159 7359.14 21 259.315 0 
-0.4233 273.256 6.07185 7407.99 20 302.037 0 
-0.4225 339.244 7.53814 7366.24 20 210.234 79.2785 
-0.4217 297.052 6.60061 7292.3 20 342.451 0 
-0.4209 351.983 7.43014 7419.33 19 422.07 160.729 
-0.4201 391.228 8.69322 7373.78 20 448.055 0 
-0.4193 232.145 5.15834 7445.26 20 329.116 0 
-0.4185 368.999 8.19928 7535.46 20 315.182 0 
-0.4177 284.861 6.32971 7413.73 20 203.091 78.8022 
-0.4169 292.924 6.83433 7421.47 21 170.126 98.8171 
-0.4161 346.13 7.69114 7437.75 20 306.476 79.0455 
-0.4153 242.111 5.37981 7463.68 20 482.278 358.677 
-0.4145 259.29 5.76151 7467.38 20 252.422 157.604 
-0.4137 287.776 6.07477 7389.28 19 210.383 0 
-0.4129 215.475 5.02732 7525.43 21 254.127 155.232 
-0.4121 310.085 6.89021 7338.15 20 353.597 212.701 
-0.4113 326.813 7.2619 7435.25 20 170.073 100.707 
-0.4105 414.014 9.19954 7413.55 20 272.585 178.855 
-0.4097 278.506 6.18851 7431.39 20 341.446 79.0455 
-0.4089 252.126 5.32221 7363.78 19 431.892 80.3645 
-0.4081 261.135 5.80251 7509.09 20 178.241 0 
-0.4073 274.831 6.41219 7256.94 21 248.93 117.326 
-0.4065 253.796 5.63944 7380.04 20 287.259 159.397 
-0.4057 251.827 5.31591 7384.5 19 297.226 182.117 
-0.4049 199.404 4.43083 7392.77 20 324.671 157.604 
-0.4041 293.318 6.84352 7408.33 21 370.89 0 
-0.4033 232.591 5.16825 7491.73 20 292.046 158.091 
-0.4025 372.956 7.87286 7434.64 19 262.508 0 
-0.4017 237.342 5.27383 7377.59 20 379.733 159.397 
-0.4009 222.844 4.95167 7413.28 20 310.254 0 
-0.4001 242.555 5.65914 7385.4 21 367.186 117.326 
-0.3993 275.479 6.12125 7432.63 20 250.319 357.658 
-0.3985 242.089 5.37932 7402.33 20 362.786 157.604 
-0.3977 285.098 6.33498 7436.29 20 298.803 79.2785 
-0.3969 267.512 5.64701 7330.53 19 255.408 204.064 
-0.3961 298.005 6.62179 7462.72 20 352.965 79.0455 
-0.3953 308.068 7.18766 7351.13 21 210.563 0 
-0.3945 215.987 4.79932 7399.72 20 344.226 79.0455 
-0.3937 264.608 5.87969 7277.24 20 365.548 78.8022 
-0.3929 273.663 6.0809 7434.93 20 306.492 158.091 
-0.3921 264.81 5.88418 7322.88 20 221.163 79.0455 
-0.3913 250.539 5.56708 7381.55 20 189.235 157.604 
-0.3905 288.086 6.40137 7453.27 20 251.51 179.752 
-0.3897 434.87 9.66296 7375.24 20 234.8 100.707 
-0.3889 217.422 4.83119 7343.85 20 282.709 158.091 
-0.3881 199.528 4.43359 7441.55 20 231.442 0 
-0.3873 263.046 5.55274 7390.71 19 318.343 182.117 
-0.3865 265.766 5.90542 7459.75 20 173.452 79.4976 
-0.3857 166.892 3.7084 7324.97 20 326.122 178.855 
-0.3849 267.317 6.23687 7385.57 21 373.87 0 
-0.3841 288.36 6.40746 7460.26 20 363.371 0 
-0.3833 241.28 5.36133 7345.48 20 329.073 79.2785 
-0.3825 238.37 5.29668 7385.03 20 319.767 158.557 
-0.3817 177.312 3.74295 7401.46 19 340.852 80.3645 
-0.3809 384.391 8.96837 7276.08 21 326.953 98.8171 
-0.3801 299.986 6.66581 7452.35 20 238.169 181.562 
-0.3793 284.32 6.0018 7366.18 19 354.984 80.6333 
-0.3785 288.319 6.72687 7348.97 21 358.441 156.064 
-0.3777 306.192 6.46351 7401.7 19 263.525 160.729 
-0.3769 333.992 7.42143 7345.78 20 372.184 0 
-0.3761 240.831 5.61892 7338.5 21 199.884 0 
-0.3753 248.013 5.51094 7375.1 20 230.145 337.792 
-0.3745 326.259 7.24959 7422.16 20 352.513 197.895 
-0.3737 246.974 5.21346 7406.77 19 361.636 102.766 
-0.3729 306.017 7.1398 7378.51 21 298.944 155.659 
-0.3721 329.542 6.95642 7388.74 19 327.484 0 
-0.3713 358.497 8.36424 7414.77 21 258.492 100.026 
-0.3705 253.434 5.34983 7480.22 19 340.652 161.267 
-0.3697 251.615 5.59097 7524.19 20 405.365 79.0455 
-0.3689 288.042 6.72042 7406.05 21 360.002 77.6162 
-0.3681 319.997 7.11045 7428.94 20 350.799 158.995 
-0.3673 320.657 6.76886 7327.78 19 205.091 183.131 
-0.3665 471.236 10.471 7498.08 20 350.429 178.855 
-0.3657 372.53 8.27776 7342.54 20 387.343 79.0455 
-0.3649 267.253 5.93845 7415.65 20 272.24 180.656 
-0.3641 177.512 4.14161 7510.51 21 211.345 156.443 
-0.3633 180.697 4.01514 7391.28 20 263.8 79.0455 
-0.3625 262.676 5.83675 7502.21 20 244.98 100.707 
-0.3617 297.105 6.60179 7396.21 20 287.441 100.707 
-0.3609 246.185 5.47031 7394.4 20 261.776 178.855 
-0.3601 321.377 6.78407 7390.24 19 283.082 160.729 
-0.3593 222.279 4.93911 7405.59 20 336.372 254.225 
-0.3585 221.872 4.93008 7395.4 20 288.44 79.0455 
-0.3577 247.964 5.50984 7245.98 20 153.67 78.8022 
-0.3569 340.873 7.95303 7405.02 21 261.452 99.4156 
-0.3561 322.441 6.80652 7571.96 19 337.657 80.3645 
-0.3553 268.36 6.2612 7503.96 21 392.189 98.2313 
-0.3545 314.339 6.98474 7392.24 20 427.565 78.8022 
-0.3537 270.831 5.71706 7428.45 19 349.285 80.3645 
-0.3529 212.367 4.95482 7388.51 21 326.947 77.8293 
-0.3521 290.693 6.4593 7365.43 20 302.972 201.413 
-0.3513 427.684 9.02812 7348.85 19 223.986 80.0856 
-0.3505 219.929 5.13124 7451.48 21 324.592 98.2313 
-0.3497 300.151 6.33599 7369.44 19 238.876 245.699 
-0.3489 230.842 5.1294 7333.84 20 248.094 178.855 
-0.3481 314.709 7.34259 7370.23 21 378.291 0 
-0.3473 270.419 6.00882 7411.44 20 345.313 180.656 
-0.3465 246.838 5.2106 7444.81 19 321.134 160.171 
-0.3457 284.92 6.64757 7384.79 21 312.76 0 
-0.3449 189.088 3.99153 7406.78 19 247.528 183.131 
-0.3441 161.469 3.5879 7365.16 20 314.984 0 
-0.3433 270.623 6.01335 7376.38 20 235.407 101.378 
-0.3425 269.48 6.28735 7459.56 21 261.489 77.6162 
-0.3417 341.723 7.59321 7482.79 20 355.553 79.2785 
-0.3409 270.335 6.00694 7329 20 259.352 157.604 
-0.3401 274.256 6.09408 7447.21 20 270.572 158.557 
-0.3393 330.454 7.34281 7387.56 20 271.559 0 
-0.3385 283.628 6.30231 7430.86 20 414.253 158.995 
-0.3377 229.308 5.09531 7517.06 20 283.72 121.119 
-0.3369 280.252 6.22731 7425.09 20 445.259 0 
-0.3361 218.108 4.60411 7437.83 19 211.062 80.0856 
-0.3353 246.441 5.74981 7391.79 21 245.061 78.2215 
-0.3345 234.248 5.20508 7271.82 20 293.52 100.052 
-0.3337 374.178 7.89866 7412.6 19 309.496 137.157 
-0.3329 394.978 8.77655 7378.46 20 353.14 79.0455 
-0.3321 331.924 7.74425 7384.43 21 322.385 98.2313 
-0.3313 272.535 5.75303 7422.98 19 183.552 160.171 
-0.3305 252.909 5.90073 7420.67 21 293.906 0 
-0.3297 213.907 4.7531 7456.77 20 250.783 158.995 
-0.3289 216.781 4.57611 7425.77 19 335.438 80.8879 
-0.3281 199.246 4.42731 7321.52 20 342.295 79.4976 
-0.3273 238.602 5.56691 7514.35 21 264.827 176.646 
-0.3265 311.164 6.91417 7379.4 20 397.457 158.557 
-0.3257 242.466 5.38769 7460.29 20 252.986 0 
-0.3249 276.992 6.15487 7446.22 20 336.754 179.752 
-0.3241 338.941 7.5314 7377.27 20 246.385 78.8022 
-0.3233 299.783 6.66128 7426.05 20 395.083 0 
-0.3225 309.037 6.86691 7468.65 20 358.322 79.2785 
-0.3217 273.853 5.78086 7377.72 19 306.064 0 
-0.3209 328.067 7.65426 7458.39 21 318.585 78.3935 
-0.3201 325.56 6.87236 7404.82 19 330.924 0 
-0.3193 279.487 6.52082 7448.73 21 367.158 77.8293 
-0.3185 199.447 4.21019 7430.22 19 295.304 102.032 
-0.3177 272.967 6.06542 7460.24 20 333.999 157.604 
-0.3169 232.84 5.43248 7397.1 21 299.707 0 
-0.3161 318.484 7.07683 7423.39 20 263.787 79.0455 
-0.3153 328.711 7.30407 7384.94 20 260.735 119.96 
-0.3145 202.987 4.51045 7338.99 20 283.225 179.752 
-0.3137 344.93 7.66446 7334.68 20 203.343 79.2785 
-0.3129 343.358 7.62955 7423.24 20 358.772 100.707 
-0.3121 269.728 5.69378 7411.66 19 438.662 0 
-0.3113 265.253 6.18872 7402.05 21 397.049 78.0321 
-0.3105 310.18 6.89231 7400.74 20 429.098 200.105 
-0.3097 302.26 6.71633 7494.86 20 221.203 79.0455 
-0.3089 272.411 6.05307 7470.38 20 271.492 281.968 
-0.3081 300.697 6.6816 7499.57 20 398.171 0 
-0.3073 351.903 7.42844 7346.21 19 240.141 80.3645 
-0.3065 316.278 7.3792 7299.91 21 251.374 175.848 
-0.3057 178.566 3.96781 7307.97 20 263.09 158.091 
-0.3049 357.678 7.94773 7410.63 20 310.68 100.052 
-0.3041 325.757 6.87653 7260.83 19 298.05 80.0856 
-0.3033 191.143 4.24726 7468.75 20 408.851 78.8022 
-0.3025 278.837 6.50565 7310.62 21 374.751 0 
-0.3017 336.302 7.47275 7467.75 20 285.535 78.8022 
-0.3009 236.259 5.24976 7319.77 20 499.171 197.895 
-0.3001 310.944 6.9093 7430.09 20 199.288 79.2785 
-0.2993 288.912 6.09875 7341.82 19 208.984 80.6333 
-0.2985 356.323 8.31351 7436.53 21 343.069 271.94 
-0.2977 254.442 5.6538 7353.63 20 242.328 79.0455 
-0.2969 358.557 7.56891 7460.55 19 388.626 0 
-0.2961 337.541 7.50029 7419.74 20 221.541 180.656 
-0.2953 360.524 8.41154 7433.4 21 328.799 0 
-0.2945 275.631 6.12462 7371.71 20 286.526 100.707 
-0.2937 293.74 6.527 7287.73 20 218.607 78.8022 
-0.2929 265.323 5.60079 7475.64 19 226.864 80.0856 
-0.2921 342.076 7.60107 7484.32 20 306.55 79.0455 
-0.2913 230.779 5.12799 7399.66 20 294.484 0 
-0.2905 278.812 6.50507 7438.78 21 240.029 0 
-0.2897 193.116 4.2911 7454.48 20 303.297 197.895 
-0.2889 242.925 5.12798 7447.5 19 279.874 183.131 
-0.2881 275.038 6.41702 7495.95 21 240.197 98.2313 
-0.2873 165.417 3.49184 7399.63 19 279.859 182.117 
-0.2865 270.543 6.01156 7446.7 20 354.781 101.378 
-0.2857 222.997 4.95507 7339.99 20 160.713 79.4976 
-0.2849 229.538 5.10041 7375.31 20 321.851 79.0455 
-0.2841 322.956 7.17621 7452.36 20 244.433 0 
-0.2833 365.24 8.11576 7412.94 20 336.448 100.707 
-0.2825 277.339 6.16258 7368.11 20 368.188 79.0455 
-0.2817 314.802 7.34477 7372.2 21 271.256 155.659 
-0.2809 231.7 4.89105 7400.61 19 289.864 102.032 
-0.2801 285.794 6.35045 7430.31 20 266.558 79.0455 
-0.2793 316.446 7.38312 7390.29 21 186.5 77.6162 
-0.2785 188.966 4.1989 7401.05 20 407.655 0 
-0.2777 249.107 5.25848 7466.23 19 269.701 0 
-0.2769 405.43 9.45924 7475.14 21 272.875 98.2313 
-0.2761 325.795 6.87731 7311.13 19 309.613 80.6333 