ITEM: TIMESTEP
9000
ITEM: NUMBER OF CELLS
5000
ITEM: BOX BOUNDS or pp pp
-0.5 0.5
0 0.0002
-0.5 0.5
ITEM: CELLS xc c_1[1] c_1[2] c_2[1] c_2[2] c_2[3] c_3[1] 
-0.4999 319.953 8.53136 7378.18 24 371.535 74.8155 
-0.4991 204.033 4.98706 7416.74 22 259.981 0 
-0.4983 302.864 5.04732 7427.85 15 317.095 0 
-0.4975 230.492 3.07296 7384.89 12 146.978 0 
-0.4967 331.069 4.41389 7442.34 12 226.163 123.292 
-0.4959 224.932 3.24875 7380.2 13 191.18 0 
-0.4951 258.955 5.75409 7375.02 20 225.185 101.378 
-0.4943 211.862 4.70766 7316.12 20 368.614 180.656 
-0.4935 240.942 6.95997 7393.64 26 390.366 73.0127 
-0.4927 335.967 6.71877 7318.19 18 320.48 81.8019 
-0.4919 230.972 4.10582 7381 16 337.072 0 
-0.4911 289.252 6.10593 7502.02 19 369.527 80.0856 
-0.4903 295.338 4.59376 7359.36 14 309.205 0 
-0.4895 293.862 6.8562 7420.39 21 292.783 156.787 
-0.4887 252.844 5.61829 7403.35 20 273.868 79.0455 
-0.4879 313.156 10.4377 7432.36 30 319.877 171.431 
-0.4871 251.748 6.15333 7466.92 22 326.289 76.7031 
-0.4863 231.389 3.34201 7449.28 13 354.473 0 
-0.4855 308.76 5.48862 7421.54 16 274.474 0 
-0.4847 256.705 5.41888 7393.76 19 280.513 183.131 
-0.4839 309.741 6.88257 7378.55 20 253.273 0 
-0.4831 253.966 7.05404 7314.53 25 332.737 147.273 
-0.4823 361.309 9.6341 7408.18 24 325.213 74.6794 
-0.4815 254.742 7.07559 7392.72 25 351.431 92.9674 
-0.4807 291.949 6.16286 7446.8 19 379.535 80.3645 
-0.4799 294.849 7.5344 7331.41 23 310.982 151.622 
-0.4791 248.281 4.96521 7339.99 18 251.671 81.4807 
-0.4783 243.805 6.23005 7457.66 23 243.974 302.576 
-0.4775 294.112 7.18881 7377.67 22 261.089 195.224 
-0.4767 327.351 9.45601 7409.44 26 293.313 179.974 
-0.4759 266.71 5.92639 7484.88 20 276.563 119.96 
-0.4751 246.595 6.30134 7381.68 23 449.692 189.977 
-0.4743 354.606 7.87947 7415.47 20 288.637 79.2785 
-0.4735 249.38 4.71012 7265.52 17 346.589 0 
-0.4727 385.594 11.1385 7388.73 26 312.079 91.9888 
-0.4719 416.921 10.1905 7457.66 22 241.568 76.8802 
-0.4711 327.893 6.92161 7449.44 19 341.505 0 
-0.4703 437.314 6.31623 7405.01 13 266.154 0 
-0.4695 202.688 4.95419 7307.23 22 298.768 175.202 
-0.4687 233.616 5.19103 7436.72 20 302.809 79.0455 
-0.4679 292.924 9.43789 7340.62 29 303.892 88.9055 
-0.4671 230.981 3.07949 7397.34 12 388.658 93.536 
-0.4663 305.687 6.45285 7531.11 19 452.829 80.3645 
-0.4655 247.802 5.50625 7465.91 20 237.092 79.0455 
-0.4647 398.422 7.96777 7394.1 18 284.507 82.4105 
-0.4639 225.76 4.76564 7405.54 19 279.638 184.156 
-0.4631 236.124 5.50911 7468.43 21 255.47 117.326 
-0.4623 224.82 2.99735 7473.05 12 295.994 93.536 
-0.4615 308.57 6.85654 7311.58 20 306.375 0 
-0.4607 279.224 5.89424 7447.55 19 375.302 80.3645 
-0.4599 267.387 7.12972 7456.46 24 368.795 75.0497 
-0.4591 378.498 10.9335 7375.91 26 292.767 0 
-0.4583 267.185 6.8275 7419.75 23 263.908 75.8112 
-0.4575 286.139 6.04022 7365.75 19 335.655 80.0856 
-0.4567 215.638 2.63536 7444.06 11 345.934 0 
-0.4559 207.524 4.15014 7502.68 18 330.588 124.63 
-0.4551 275.99 6.43924 7336.44 21 377.812 77.6162 
-0.4543 186.498 5.38727 7344.5 26 282.544 91.6271 
-0.4535 208.53 6.48707 7459.64 28 317.845 142.84 
-0.4527 242.57 5.92901 7415.25 22 251.084 76.7031 
-0.4519 278.195 7.41792 7376.74 24 295.872 74.8155 
-0.4511 229.052 4.58065 7340.26 18 314.088 0 
-0.4503 204.042 5.21397 7362.14 23 377.351 151.908 
-0.4495 242.958 5.66856 7359.13 21 268.579 77.6162 
-0.4487 359.416 7.98635 7374.13 20 276.743 79.0455 
-0.4479 283.565 5.35579 7461.3 17 241.694 83.3767 
-0.4471 292.336 4.87185 7395.1 15 281.789 112.106 
-0.4463 351.546 8.59262 7312.48 22 295.822 306.763 
-0.4455 247.028 5.7635 7419.44 21 322.19 98.2313 
-0.4447 217.512 4.10823 7448.5 17 379.346 83.7397 
-0.4439 288.507 6.09021 7377.92 19 389.437 0 
-0.4431 361 5.61508 7353.24 14 255.222 0 
-0.4423 252.111 6.72241 7367.29 24 312.397 0 
-0.4415 257.701 6.87144 7384.02 24 251.884 168.07 
-0.4407 258.942 7.47991 7428.67 26 389.349 165.54 
-0.4399 265.842 5.02104 7436.2 17 462.133 215.367 
-0.4391 292.48 6.49901 7396.05 20 285.94 118.849 
-0.4383 272.641 4.84654 7350.96 16 166.062 135.503 
-0.4375 264.965 7.65392 7458.29 26 345.038 72.9075 
-0.4367 292.77 7.156 7373.34 22 252.719 192.885 
-0.4359 374.575 9.15552 7439.24 22 395.227 0 
-0.4351 292.429 5.19831 7335.01 16 387.087 0 
-0.4343 204.572 4.54566 7434.87 20 449.085 102.065 
-0.4335 227.24 5.04936 7411.01 20 330.308 0 
-0.4327 145.538 2.91052 7436.62 18 316.896 105.023 
-0.4319 306.472 8.17191 7417.02 24 378.695 110.639 
-0.4311 314.874 5.24747 7320.69 15 280.138 173.062 
-0.4303 288.28 8.96798 7352.08 28 369.709 142.497 
-0.4295 210.512 5.84707 7320.75 25 382.918 107.412 
-0.4287 356.246 10.2907 7375.38 26 352.61 72.9075 
-0.4279 286.466 5.41057 7357.66 17 264.836 0 
-0.4271 245.006 6.26073 7452.17 23 313.935 95.9469 
-0.4263 261.975 4.07483 7311.21 14 269.797 178.388 
-0.4255 165.273 4.2233 7506.48 23 467.591 75.8112 
-0.4247 216.732 4.81586 7476.1 20 238.673 117.785 
-0.4239 336.525 7.10383 7452.97 19 467.36 80.6333 
-0.4231 300.427 5.00669 7346.26 15 207.38 116.039 
-0.4223 289.607 7.07869 7305.98 22 342.66 97.612 
-0.4215 189.715 5.69099 7322.11 27 310.439 90.3722 
-0.4207 168.231 5.23342 7413.72 28 386.972 71.2486 
-0.4199 351.445 5.85692 7427.95 15 479.776 175.085 
-0.4191 212.102 3.77039 7360.89 16 246.788 0 
-0.4183 260.228 5.78236 7489.22 20 243.131 79.0455 
-0.4175 250.381 4.17267 7321.34 15 431.249 113.351 
-0.4167 268.662 6.56674 7369.31 22 391.239 97.612 
-0.4159 275.649 7.04378 7465.52 23 265.547 0 
-0.4151 313.414 7.66059 7307.36 22 258.003 76.5158 
-0.4143 284.444 6.32045 7407.16 20 269.707 79.0455 
-0.4135 224.414 4.48792 7406.39 18 401.849 105.023 
-0.4127 277.946 4.32325 7399.07 14 340.214 115.375 
-0.4119 340.322 9.4526 7289.3 25 230.078 195.786 
-0.4111 309.002 6.17952 7402.54 18 235.737 81.8019 
-0.4103 388.879 6.04872 7501.3 14 312.982 0 
-0.4095 412.251 11.4505 7407.12 25 395.924 184.219 
-0.4087 310.862 6.90746 7398.34 20 264.309 121.119 
-0.4079 243.631 5.41356 7437.3 20 240.752 100.052 
-0.4071 314.415 7.68506 7380.97 22 402.428 76.5158 
-0.4063 261.148 7.25351 7360.78 25 346.145 166.852 
-0.4055 295.27 6.23295 7430.94 19 331.011 80.0856 
-0.4047 406.942 9.0424 7374.52 20 341.395 237.085 
-0.4039 350.315 7.00572 7277.59 18 345.618 162.961 
-0.4031 395.547 7.91029 7389.17 18 223.22 0 
-0.4023 259.795 6.06139 7418.51 21 368.468 197.634 
-0.4015 295.052 6.55615 7376.77 20 427.954 78.8022 
-0.4007 270.113 6.00201 7503.37 20 336.274 200.617 
-0.3999 274.221 6.70261 7283.56 22 324.166 113.153 
-0.3991 293.348 6.84422 7512.48 21 315.552 0 
-0.3983 223.262 3.72072 7315.63 15 413.307 174.078 
-0.3975 319.436 8.87248 7428.76 25 241.262 167.359 
-0.3967 283.481 7.24391 7429.31 23 379.442 75.8112 
-0.3959 296.007 7.89286 7417.05 24 332.011 74.5338 
-0.3951 185.822 3.50968 7420.93 17 455.695 190.887 
-0.3943 199.604 3.54822 7451.28 16 362.912 0 
-0.3935 286.656 8.59896 7429.24 27 322.292 177.499 
-0.3927 279.596 4.65954 7333.85 15 225.476 173.062 
-0.3919 179.448 3.18993 7387.98 16 356.197 0 
-0.3911 330.524 7.34436 7400.25 20 219.974 158.091 
-0.3903 204.79 3.86794 7533.11 17 317.622 83.0049 
-0.3895 289.45 5.78851 7343.21 18 381.467 81.4807 
-0.3887 232.946 5.17615 7380.24 20 322.093 79.0455 
-0.3879 318.473 6.01509 7395.76 17 262.435 0 
-0.3871 235.71 6.28508 7410.34 24 241.192 74.5338 
-0.3863 217.267 3.62081 7364.9 15 506.395 86.531 
-0.3855 237.714 6.0744 7462.81 23 313.231 151.312 
-0.3847 197.84 3.95646 7418.28 18 409.577 0 
-0.3839 232.641 6.46171 7456.85 25 434.384 315.983 
-0.3831 239.059 6.37438 7417.22 24 326.498 170.338 
-0.3823 226.207 4.27244 7315.36 17 338.363 0 
-0.3815 235.993 6.817 7313.07 26 236.903 145.587 
-0.3807 319.371 4.96758 7447.27 14 340.17 233.647 
-0.3799 280.158 7.47026 7445.09 24 337.118 74.9398 
-0.3791 231.451 4.88579 7430.38 19 340.609 102.766 
-0.3783 299.209 5.31882 7438.73 16 460.749 363.174 
-0.3775 404.567 8.54015 7480.2 19 277.118 160.171 
-0.3767 276.724 6.14891 7509.44 20 430.392 79.0455 
-0.3759 269.127 4.78407 7351.97 16 379.21 0 
-0.3751 279.336 7.44833 7367.94 24 344.016 224.398 
-0.3743 299.017 5.64762 7352.16 17 352.67 109.508 
-0.3735 291.667 10.3695 7260.05 32 355.187 154.33 
-0.3727 200.222 3.1143 7321.23 14 234.463 89.1941 
-0.3719 308.668 5.82991 7361.18 17 359.078 190.887 
-0.3711 309.7 7.5698 7358.5 22 297.086 0 
-0.3703 242.982 5.66911 7401.12 21 303.786 177.448 
-0.3695 180.472 2.6066 7608.09 13 215.313 90.9094 
-0.3687 243.776 4.87511 7468.4 18 387.931 0 
-0.3679 325.401 7.59206 7370.54 21 283.857 98.2313 
-0.3671 245.37 4.08916 7291.37 15 374.857 114.66 
-0.3663 331.928 6.26923 7393.44 17 414.058 83.7397 
-0.3655 227.444 7.83354 7391.89 31 379.842 154.806 
-0.3647 269.608 6.88941 7487.76 23 359.478 171.12 
-0.3639 205.173 4.10311 7349.29 18 188.64 164.227 
-0.3631 231.861 6.18244 7422.99 24 340.844 95.2879 
-0.3623 225.939 5.5225 7416.3 22 406.282 0 
-0.3615 271.161 3.31391 7380.27 11 491.648 99.8309 
-0.3607 220.729 4.90467 7441.74 20 301.831 0 
-0.3599 288.519 6.09045 7401.63 19 331.631 0 
-0.3591 187.344 3.12214 7395.06 15 221.335 0 
-0.3583 164.955 1.46615 7478.42 8 237.929 111.396 
-0.3575 371.637 9.08369 7380.37 22 264.99 76.7031 
-0.3567 256.787 7.70297 7395.6 27 378.857 89.7164 
-0.3559 280.001 6.22174 7368.07 20 241.703 0 
-0.3551 277.925 8.02828 7428.16 26 394.295 119.07 
-0.3543 225.574 5.26296 7315 21 346.551 175.848 
-0.3535 249.505 4.98968 7385.61 18 308.86 0 
-0.3527 334.784 6.32317 7447.97 17 219.237 192.23 
-0.3519 247.793 5.23076 7366.68 19 455.599 80.6333 
-0.3511 260.35 2.60329 7451.05 9 365.11 104.194 
-0.3503 243.998 4.33737 7400.81 16 360.493 109.19 
-0.3495 256.014 7.67979 7360.36 27 320.82 72.1927 
-0.3487 212.114 5.18458 7352.08 22 278.578 76.5158 
-0.3479 355.529 6.31998 7411.06 16 198.213 129.977 
-0.3471 355.995 9.09688 7413 23 309.92 75.6561 
-0.3463 264.318 5.28592 7397.48 18 390.372 164.227 
-0.3455 227.749 4.5546 7354.41 18 339.262 0 
-0.3447 257.143 6.2852 7371.39 22 303.884 97.612 
-0.3439 231.572 6.43201 7348.73 25 326.929 73.7654 
-0.3431 265.117 5.891 7422.76 20 255.329 79.2785 
-0.3423 373.821 11.2137 7403.18 27 258.681 144.2 
-0.3415 437.408 9.71937 7414.97 20 322.699 0 
-0.3407 210.715 4.21394 7388.8 18 338.502 81.4807 
-0.3399 258.306 7.17456 7375.53 25 262.594 333.657 
-0.3391 339.587 8.30032 7408.32 22 433.372 0 
-0.3383 249.728 5.8265 7412.48 21 247.446 78.0321 
-0.3375 178.921 3.57812 7397.27 18 410.913 82.1134 
-0.3367 333.68 7.78521 7447.29 21 147.229 98.8171 
-0.3359 302.185 4.70026 7446.89 14 226.122 0 
-0.3351 262.094 5.82382 7305.15 20 270.279 79.0455 
-0.3343 309.637 5.16018 7373.21 15 333.719 0 
-0.3335 280.714 7.48507 7408.18 24 419.774 168.646 
-0.3327 226.728 4.03039 7375.04 16 312.983 195.381 
-0.3319 300.564 7.68043 7522.02 23 326.069 115.286 
-0.3311 272.287 4.84025 7374.24 16 322.497 85.5383 
-0.3303 251.49 4.74996 7320.7 17 294.828 106.568 
-0.3295 260.108 6.64666 7421.93 23 266.16 126.733 
-0.3287 250.576 6.12468 7354.65 22 324.844 77.0444 
-0.3279 292.487 8.77388 7429.83 27 325.06 91.3581 
-0.3271 305.126 6.44102 7430.84 19 430.38 122.85 
-0.3263 272.071 7.85918 7397.72 26 375.153 72.7933 
-0.3255 379.332 7.16455 7338.6 17 507.586 166.753 
-0.3247 238.821 4.77603 7421.26 18 274.874 81.8019 
-0.3239 183.891 5.31196 7402.71 26 418.346 72.9075 
-0.3231 271.82 5.73794 7391.4 19 344.271 0 
-0.3223 248.829 5.25262 7358.85 19 269.624 0 
-0.3215 196.509 4.58484 7362.4 21 293.744 0 
-0.3207 295.19 7.21517 7416.68 22 234.579 96.5489 
-0.3199 240.674 4.81307 7477.5 18 281.597 164.227 
-0.3191 248.152 4.96262 7388.57 18 342.778 208.388 
-0.3183 268.503 5.66793 7464.86 19 292.956 0 
-0.3175 232.597 5.68522 7378.92 22 237.173 76.5158 
-0.3167 307.724 5.1283 7466.4 15 232.245 112.106 
-0.3159 302.865 6.39328 7294.82 19 254.21 80.3645 
-0.3151 212.461 7.08145 7428.6 30 333.777 139.871 
-0.3143 210.796 3.98137 7333.38 17 284.054 0 
-0.3135 242.369 4.03915 7349.52 15 335.724 87.039 
-0.3127 205.685 4.34187 7435.68 19 310.823 0 
-0.3119 230.076 4.60114 7411.66 18 235.457 81.4807 
-0.3111 257.908 6.59042 7427.2 23 274.407 75.8112 
-0.3103 339.673 6.41551 7382.1 17 295.151 0 
-0.3095 249.271 5.81584 7368.01 21 302.784 177.448 
-0.3087 293.966 5.55222 7378.53 17 315.094 192.23 
-0.3079 384.07 9.81429 7334.64 23 344.515 111.098 
-0.3071 280.029 6.22235 7331.41 20 276.765 200.105 
-0.3063 248.614 4.14322 7424.58 15 321.033 0 
-0.3055 255.99 6.54142 7500.07 23 348.109 151.312 
-0.3047 230.608 5.89283 7349.98 23 362.708 96.436 
-0.3039 185.758 4.95312 7432.45 24 291.168 123.292 
-0.3031 256.532 7.4103 7395.11 26 306.558 163.703 
-0.3023 207.048 3.91057 7491.54 17 340.543 83.7397 
-0.3015 280.706 7.48488 7335.48 24 386.338 205.042 
-0.3007 328.548 8.76055 7430.94 24 405.11 0 
-0.2999 185.248 3.70465 7465.6 18 217.746 81.8019 
-0.2991 313.562 6.96745 7355.79 20 167.139 157.604 
-0.2983 383.541 10.2269 7457.47 24 330.924 109.904 
-0.2975 313.549 5.22539 7398.06 15 607.273 0 
-0.2967 203.879 2.03862 7349.87 9 242.057 0 
-0.2959 308.354 6.50916 7417.13 19 275.535 251.056 
-0.2951 221.681 6.40358 7388.97 26 212.675 179.256 
-0.2943 235.981 4.9814 7327.09 19 258.478 80.0856 
-0.2935 263.273 4.38752 7368.08 15 194.002 0 
-0.2927 230.696 5.12615 7380.16 20 378.94 178.855 
-0.2919 204.15 4.53628 7357.26 20 451.046 237.784 
-0.2911 216.535 5.05206 7265.03 21 280.702 0 
-0.2903 294.547 4.25421 7415.56 13 339.326 0 
-0.2895 236.283 4.46274 7382.14 17 276.989 0 
-0.2887 239.262 5.58231 7360.16 21 309.032 77.8293 
-0.2879 193.309 4.29539 7404.12 20 310.67 100.707 
-0.2871 268.838 6.57105 7486.73 22 322.483 77.1923 
-0.2863 439.858 7.33036 7390.66 15 282.922 0 
-0.2855 293.59 7.17605 7381.89 22 518.643 114.913 
-0.2847 231.445 5.14279 7469.18 20 301.737 79.2785 
-0.2839 222.319 4.69301 7382.12 19 310.183 80.6333 
-0.2831 220.766 4.66022 7479.52 19 312.712 102.032 
-0.2823 262.149 6.6988 7380.02 23 539.924 94.9884 
-0.2815 236.611 5.52045 7390.48 21 272.517 177.448 
-0.2807 246.692 6.852 7315.36 25 318.283 314.575 
-0.2799 322.649 7.88632 7380.34 22 244.666 192.885 
-0.2791 244.358 6.24417 7443.2 23 362.51 95.4641 
-0.2783 394.41 7.01115 7443.96 16 311.678 171.077 
-0.2775 288.632 5.45149 7438.6 17 149.825 106.568 
-0.2767 284.201 7.57806 7373.14 24 324.303 74.6794 
-0.2759 342.537 7.99187 7375.85 21 283.456 155.232 
-0.2751 193.234 5.36715 7345.77 25 480.327 148.176 
-0.2743 335.824 7.46213 7362.94 20 233.077 79.4976 
-0.2735 348.748 8.13676 7337.41 21 245.941 0 
-0.2727 188.677 3.77323 7401.71 18 222.169 0 
-0.2719 413.204 8.72246 7450.26 19 307.84 241.848 
-0.2711 356.642 8.32095 7446.48 21 259.826 99.4156 
-0.2703 204.5 5.45289 7392.24 24 277.159 168.646 
-0.2695 221.097 6.63235 7372.5 27 356.905 72.1001 
-0.2687 242.355 5.38522 7433.65 20 276.382 0 
-0.2679 256.866 5.13688 7519.09 18 265.697 162.961 
-0.2671 263.55 4.97776 7454.85 17 436.66 106.568 
-0.2663 293.529 5.8701 7385.66 18 280.08 81.4807 
-0.2655 240.662 5.88236 7387.15 22 275.535 211.093 
-0.2647 328.386 8.02655 7464.56 22 225.298 153.032 
-0.2639 168.37 4.30243 7431.96 23 331.208 75.6561 
-0.2631 246.903 5.21197 7338.04 19 307.798 102.766 
-0.2623 274.346 8.53451 7403.08 28 356.551 143.264 
-0.2615 270.239 6.60528 7318.33 22 253.635 98.1572 
-0.2607 313.347 9.39963 7441.67 27 307.474 180.087 
-0.2599 275.648 3.98126 7403.67 13 339.889 181.819 
-0.2591 287.867 5.43703 7349.28 17 340.051 83.0049 
-0.2583 175.468 3.31411 7280.16 17 463.921 166.01 
-0.2575 308.808 5.83256 7418.65 17 257.179 166.01 
-0.2567 354.395 7.87479 7344.66 20 297.038 79.0455 
-0.2559 267.857 6.54708 7325.75 22 272.211 0 
-0.2551 247.433 6.04786 7453.64 22 318.424 0 
-0.2543 325.604 6.8733 7403.99 19 390.718 102.766 
-0.2535 307.431 9.22217 7343.99 27 542.436 336.335 
-0.2527 259.126 4.03051 7361.38 14 178.932 0 
-0.2519 299.747 6.66048 7365.9 20 323.427 79.4976 
-0.2511 170.072 4.15697 7372.94 22 428.277 114.913 
-0.2503 201.793 4.48392 7260.27 20 209.302 181.562 
-0.4993 305.492 6.44874 7428.89 19 369.984 160.729 
-0.4985 303.98 8.10546 7402.56 24 330.157 149.359 
-0.4977 308.099 8.89989 7276.67 26 301.334 73.0127 
-0.4969 314.105 7.3285 7332.45 21 309.638 156.064 
-0.4961 223.31 5.70633 7409.18 23 380.206 0 
-0.4953 242.142 4.84243 7367.63 18 402.402 81.4807 
-0.4945 337.631 9.00275 7481.83 24 312.541 93.967 
-0.4937 373.378 7.88177 7416.84 19 253.582 183.131 
-0.4929 243.087 4.05112 7330.51 15 344.672 0 
-0.4921 184.118 3.06837 7381.34 15 239.678 86.531 
-0.4913 236.563 4.73086 7524.32 18 248.008 0 
-0.4905 296.278 8.55842 7429.96 26 333.696 72.9075 
-0.4897 403.536 12.5534 7418.47 28 223.809 160.987 
-0.4889 345.09 6.13442 7498.97 16 289.1 85.1125 
-0.4881 428.799 8.57526 7430.34 18 209.638 206.432 
-0.4873 367.448 4.89889 7401.79 12 138.422 95.2879 
-0.4865 312.101 5.20125 7471.25 15 210.774 86.531 
-0.4857 262.846 7.5927 7411.14 26 339.626 309.942 
-0.4849 283.199 5.66351 7363.07 18 325.901 163.604 
-0.4841 324.498 6.84994 7422.89 19 310.947 102.032 
-0.4833 398.43 7.96794 7456.43 18 407.052 163.604 
-0.4825 283.265 5.0354 7398.24 16 367.022 220.537 
-0.4817 328.087 7.29021 7439.18 20 418.887 79.2785 
-0.4809 251.189 6.41873 7331.18 23 305.492 96.436 
-0.4801 221.603 4.9241 7377.09 20 371.265 100.707 
-0.4793 238.319 4.50121 7440.34 17 336.465 166.7 
-0.4785 301.36 5.69188 7325.01 17 215.784 190.887 
-0.4777 224.099 6.47344 7349.62 26 353.653 146.025 
-0.4769 271.841 3.62425 7340.01 12 452.273 94.4034 
-0.4761 355.065 7.88967 7461.22 20 513.323 79.0455 
-0.4753 259.486 5.18929 7392.32 18 355.97 162.961 
-0.4745 271.539 6.63707 7401.03 22 296.735 0 
-0.4737 211.451 3.52389 7374.25 15 220.581 0 
-0.4729 389.253 10.3792 7373.78 24 384.551 109.904 
-0.4721 213.207 4.26378 7410.38 18 264.476 0 
-0.4713 318.29 6.36528 7393.04 18 549.748 0 
-0.4705 331.166 6.9907 7427.28 19 263.371 102.032 
-0.4697 268.639 6.26772 7423.57 21 304.765 176.646 
-0.4689 247.547 4.95052 7372.69 18 262.72 81.4807 
-0.4681 225.963 6.52727 7392.23 26 241.353 73.1072 
-0.4673 311.916 6.2378 7386.97 18 263.986 104.194 
-0.4665 271.254 6.32873 7372.87 21 344.532 177.448 
-0.4657 229.529 4.33519 7476.93 17 158.304 83.0049 
-0.4649 230.816 5.38526 7411.29 21 304.85 232.798 
-0.4641 252.027 5.32013 7351.61 19 395.678 183.131 
-0.4633 302.396 8.06322 7356.37 24 330.718 0 
-0.4625 279.977 5.28802 7403.4 17 257.475 106.568 
-0.4617 262.555 7.29259 7412.78 25 199.655 73.6366 
-0.4609 255.211 5.67087 7393.52 20 381.795 79.2785 
-0.4601 248.672 4.42046 7343.51 16 429.581 258.258 
-0.4593 331.116 5.88602 7386.04 16 243.748 170.225 
-0.4585 306.753 5.45294 7364.66 16 361.594 170.225 
-0.4577 255.275 7.65762 7377.38 27 340.022 90.0436 
-0.4569 367.389 8.97988 7453.65 22 297.696 0 
-0.4561 223.757 5.71775 7492.78 23 137.948 170.48 
-0.4553 272.013 7.55529 7335.91 25 262.522 166.337 
-0.4545 241.004 4.0164 7352.06 15 327.262 112.106 
-0.4537 230.797 5.1284 7440.25 20 235.168 237.784 
-0.4529 358.98 5.98251 7532.75 15 436.497 173.062 
-0.4521 221.736 4.6807 7352.44 19 310.24 0 
-0.4513 264.394 5.58119 7360.44 19 290.874 80.6333 
-0.4505 224.972 6.99853 7368.33 28 450.787 71.4199 
-0.4497 252.066 4.4808 7397.19 16 263.601 84.6795 
-0.4489 295.309 6.56187 7392.49 20 289.429 0 
-0.4481 278.427 6.80541 7361.57 22 289.194 153.032 
-0.4473 203.408 2.71188 7345.7 12 329.768 0 
-0.4465 289.654 4.50535 7338.28 14 278.714 178.388 
-0.4457 297.479 6.94061 7449.08 21 321.133 0 
-0.4449 308.422 6.51059 7390.46 19 425.874 80.3645 
-0.4441 259.919 6.93059 7468.57 24 434.128 0 
-0.4433 347.881 8.11655 7378.14 21 369.943 0 
-0.4425 260.651 5.50217 7415.68 19 398.514 102.032 
-0.4417 228.651 3.55649 7408.02 14 250.621 89.1941 
-0.4409 239.962 5.86525 7364.18 22 378.757 76.7031 
-0.4401 193.519 4.30006 7435.46 20 332.747 79.0455 
-0.4393 192.011 3.8399 7518.63 18 242.512 81.8019 
-0.4385 158.101 2.45914 7362.99 14 293.828 0 
-0.4377 177.038 3.54046 7452.63 18 518.457 81.4807 
-0.4369 258.404 7.46438 7393.56 26 351.125 73.0127 
-0.4361 202.542 4.27553 7407.6 19 281.537 0 
-0.4353 187.767 2.92058 7441.44 14 179.022 116.824 
-0.4345 353.062 8.23744 7451.3 21 339.946 177.448 
-0.4337 212.202 5.42248 7390.12 23 419.327 171.758 
-0.4329 224.302 3.73805 7478.3 15 346.032 0 
-0.4321 289.111 7.38778 7361.22 23 199.793 151.312 
-0.4313 267.748 7.7343 7366.7 26 373.622 204.286 
-0.4305 304.974 8.13197 7416.58 24 286.963 74.8155 
-0.4297 298.977 6.3112 7434.26 19 237.677 0 
-0.4289 202.422 3.82321 7330.77 17 462.724 0 
-0.4281 300.035 8.00028 7325.69 24 290.945 93.967 
-0.4273 229.72 4.59402 7449.57 18 358.192 186.825 
-0.4265 156.751 2.43814 7461.62 14 279.446 203.968 
-0.4257 243.758 5.14557 7344.18 19 253.471 104.301 
-0.4249 319.241 9.57642 7425.45 27 334.077 90.3722 
-0.4241 219.541 4.87828 7358.75 20 301.536 79.0455 
-0.4233 228.826 5.84729 7435.97 23 368.935 186.589 
-0.4225 334.004 7.42168 7407.97 20 220.284 79.2785 
-0.4217 203.621 3.39339 7398.86 15 316.163 87.5423 
-0.4209 284.13 7.26049 7405.3 23 365.938 0 
-0.4201 321.406 3.57088 7385.33 10 198.748 133.899 
-0.4193 276.742 6.45679 7425.68 21 294.125 155.659 
-0.4185 268.147 4.76665 7359.11 16 419.389 85.1125 
-0.4177 253.385 4.78577 7410.8 17 227.417 167.479 
-0.4169 356.053 7.51606 7385.97 19 426.53 183.131 
-0.4161 207.002 3.67973 7378.05 16 241.239 170.225 
-0.4153 339.926 9.44159 7376.03 25 222.271 92.5717 
-0.4145 257.092 5.71267 7427.12 20 313.878 79.4976 
-0.4137 235.827 6.02619 7408.57 23 416.256 187.538 
-0.4129 342.253 8.36549 7422.89 22 351.727 173.779 
-0.4121 250.149 4.1688 7370.26 15 254.966 112.106 
-0.4113 240.815 3.74571 7462.97 14 284.771 0 
-0.4105 237.075 6.32147 7390.92 24 327.004 0 
-0.4097 336.498 5.60784 7467.52 15 322.598 87.5423 
-0.4089 293.291 5.86533 7416.76 18 304.939 82.1134 
-0.4081 208.261 3.9335 7449.44 17 268.655 168.123 
-0.4073 390.145 10.403 7351.47 24 296.619 74.6794 
-0.4065 183.386 2.64868 7483.36 13 426.367 122.601 
-0.4057 284.732 5.06148 7393.35 16 580.856 84.6795 
-0.4049 240.793 3.21031 7378.34 12 436.579 93.536 
-0.4041 250.617 5.29036 7327.8 19 285.724 80.6333 
-0.4033 255.331 5.67354 7371.54 20 274.288 78.8022 
-0.4025 322.455 6.80681 7438.17 19 309.434 80.6333 
-0.4017 202.298 4.04563 7369.77 18 340.697 81.4807 
-0.4009 285.172 6.0198 7440.12 19 472.312 105.1 
-0.4001 321.19 6.42327 7460.09 18 257.326 123.292 
-0.3993 213.929 3.32751 7418 14 299.05 89.7945 
-0.3985 301.407 7.70199 7498.35 23 347.399 75.6561 
-0.3977 251.705 7.83017 7399.8 28 332.2 88.8933 
-0.3969 239.949 5.59834 7310.48 21 266.334 100.026 
-0.3961 172.939 4.22705 7399.19 22 318.388 76.8802 
-0.3953 356.483 7.92119 7386.58 20 305.95 180.656 
-0.3945 240.552 8.01772 7458.11 30 246.757 0 
-0.3937 164.658 3.65875 7387.38 20 318.222 79.2785 
-0.3929 310.733 6.55937 7424.34 19 368.265 161.267 
-0.3921 256.43 2.84899 7417.04 10 187.935 238.308 
-0.3913 266.816 5.33587 7369.47 18 387.529 104.194 
-0.3905 284.876 6.01355 7438.11 19 357.16 182.117 
-0.3897 327.73 7.28228 7442.5 20 322.773 100.707 
-0.3889 351.502 8.20104 7453.33 21 333.313 98.2313 
-0.3881 229.95 5.10957 7468.73 20 344.844 216.208 
-0.3873 225.348 3.75549 7435.79 15 360.315 87.5423 
-0.3865 240.274 4.27118 7341.44 16 363.588 170.225 
-0.3857 271.051 7.8297 7394.7 26 291.872 106.962 
-0.3849 297.538 6.94199 7373.31 21 255.026 196.463 
-0.3841 320.356 7.11842 7412.33 20 192.748 100.707 
-0.3833 384.168 10.2436 7424.07 24 260.993 188.807 
-0.3825 437.978 10.7052 7399.53 22 229.763 153.406 
-0.3817 334.671 10.0393 7535.83 27 354.714 72.1001 
-0.3809 230.931 4.36167 7465.02 17 343.059 106.568 
-0.3801 275.985 6.43911 7441.8 21 302.272 78.0321 
-0.3793 142.215 2.37005 7350.35 15 329.458 200.39 
-0.3785 263.973 5.27903 7355.37 18 244.67 0 
-0.3777 322.991 8.97123 7423.23 25 216.549 147.273 
-0.3769 267.006 5.04303 7412.96 17 383.883 106.568 
-0.3761 247.769 6.60662 7405.55 24 268.185 74.8155 
-0.3753 250.805 5.01568 7429.66 18 273.056 81.8019 
-0.3745 256.617 5.70212 7390.69 20 404.439 117.785 
-0.3737 265.88 6.79414 7443.58 23 291.059 95.9469 
-0.3729 294.044 7.51384 7374.3 23 269.842 0 
-0.3721 305.331 7.12381 7335.86 21 282.335 78.2215 
-0.3713 217.585 4.59308 7447.32 19 223.027 102.766 
-0.3705 214.456 6.19489 7371.84 26 331.5 192.816 
-0.3697 315.663 11.5734 7372.71 33 383.891 68.1608 
-0.3689 285.321 7.60791 7394.55 24 180.158 93.967 
-0.3681 159.087 3.00472 7271.98 17 348.063 189.573 
-0.3673 256.237 5.69369 7410.44 20 274.476 178.855 
-0.3665 274.81 8.24362 7355.56 27 283.156 72.1927 
-0.3657 266.07 5.32095 7392.69 18 332.683 162.961 
-0.3649 265.424 5.89782 7370.02 20 276.619 179.752 
-0.3641 290.717 7.75181 7362.95 24 251.54 0 
-0.3633 323.03 7.53675 7315.5 21 310.652 98.2313 
-0.3625 244.735 4.07858 7455.84 15 234.407 113.351 
-0.3617 271.876 4.83294 7363.74 16 181.541 0 
-0.3609 309.422 11.6883 7374.03 34 447.371 83.3767 
-0.3601 190.763 4.87465 7417.35 23 435.151 111.098 
-0.3593 304.795 7.11129 7385.91 21 283.457 77.6162 
-0.3585 260.987 4.34943 7427.66 15 262.309 113.351 
-0.3577 187.451 4.79001 7407.58 23 282.097 75.8112 
-0.3569 211.947 4.94501 7366.87 21 294.37 77.6162 
-0.3561 255.636 4.26024 7392.43 15 171.089 0 
-0.3553 332.225 11.0732 7377.55 30 345.869 140.106 
-0.3545 288.831 5.45524 7444.01 17 309.852 83.0049 
-0.3537 264.077 6.45469 7476.59 22 331.408 153.032 
-0.3529 427.956 10.4603 7427.29 22 220.631 195.224 
-0.3521 296.138 6.90932 7399.27 21 377.15 0 
-0.3513 381.719 6.78556 7410.08 16 385.297 111.396 
-0.3505 219.381 3.89979 7349.74 16 235.166 169.359 
-0.3497 348.231 8.8985 7431.1 23 444.798 95.4641 
-0.3489 263.993 5.86602 7390.45 20 169.702 180.656 
-0.3481 275.949 5.21194 7397.47 17 261.984 83.7397 
-0.3473 287.092 7.97411 7354.65 25 244.529 92.5717 
-0.3465 316.186 9.4848 7442.62 27 424.715 72.2752 
-0.3457 311.288 6.91693 7487.07 20 363.944 257.606 
-0.3449 303.776 5.40001 7409.44 16 300.882 0 
-0.3441 184.972 3.49363 7432.18 17 358.122 166.753 
-0.3433 368.99 6.14932 7409.27 15 451.938 173.062 
-0.3425 233.351 4.40737 7363.45 17 245.568 190.887 
-0.3417 279.97 4.66578 7524.43 15 426.494 0 
-0.3409 263.192 3.21652 7353.01 11 371.459 96.5489 
-0.3401 333.707 6.67357 7355.13 18 252.114 164.227 
-0.3393 232.782 4.65525 7369.96 18 259.186 105.023 
-0.3385 290.788 5.16913 7344.8 16 220.939 109.19 
-0.3377 538.533 8.37648 7341.78 14 361.323 206.018 
-0.3369 269.903 6.89695 7362.28 23 214.106 75.4912 
-0.3361 136.256 1.96798 7366.71 13 317.335 91.6271 
-0.3353 346.242 9.61704 7448.43 25 377.639 92.5717 
-0.3345 318.181 8.1306 7348.03 23 357.099 0 
-0.3337 358.48 7.169 7387.31 18 343.348 0 
-0.3329 219.297 4.38557 7419.37 18 339.171 81.8019 
-0.3321 261.155 6.09311 7406.25 21 396.432 177.448 
-0.3313 309.936 8.95295 7474.69 26 365.845 91.267 
-0.3305 276.406 5.83475 7337.86 19 477.098 80.0856 
-0.3297 350.176 10.8934 7387.72 28 333.954 174.576 
-0.3289 287.595 5.75141 7393.8 18 291.24 81.4807 
-0.3281 232.488 2.58299 7266.34 10 170.935 136.93 
-0.3273 192.224 3.20347 7423.13 15 256.052 87.039 
-0.3265 148.612 2.47665 7471.6 15 356.485 87.039 
-0.3257 133.211 1.18399 7420.9 8 321.508 0 
-0.3249 279.022 8.05997 7376.64 26 251.815 0 
-0.3241 293.013 6.18531 7315.97 19 331.781 102.766 
-0.3233 392.131 10.4559 7393.45 24 318.982 0 
-0.3225 350.755 13.2497 7412.28 34 411.303 190.226 
-0.3217 313.383 8.35617 7386.57 24 394.78 74.9398 
-0.3209 158.79 2.11703 7362.75 12 455.432 0 
-0.3201 373.776 6.64434 7441.93 16 300.627 84.6795 
-0.3193 209.32 4.65116 7386.91 20 353.074 79.0455 
-0.3185 188.027 4.17803 7347.83 20 411.504 79.4976 
-0.3177 308.688 5.48732 7405.18 16 225.072 193.869 
-0.3169 280.686 8.10804 7419.78 26 375.853 163.703 
-0.3161 200.273 4.00512 7389.8 18 296.295 0 
-0.3153 296.977 7.25884 7360.84 22 447.967 76.8802 
-0.3145 257.167 5.42863 7435.69 19 509.104 0 
-0.3137 226.947 5.04284 7414.56 20 286.38 182.465 
-0.3129 228.862 5.33966 7305.66 21 254.579 98.8171 
-0.3121 277.491 7.39914 7458.44 24 353.877 168.646 
-0.3113 235.782 5.23917 7298.98 20 368.465 117.785 
-0.3105 235.839 7.33662 7331.24 28 310.163 143.105 
-0.3097 375.899 7.93499 7431.44 19 379.427 80.3645 
-0.3089 270.471 5.10848 7305.24 17 458.415 83.0049 
-0.3081 242.394 6.7326 7398.79 25 257.253 73.7654 
-0.3073 359.91 5.99799 7465.73 15 369.061 153.975 
-0.3065 386.356 9.87271 7308.95 23 342.408 75.9539 
-0.3057 311.934 6.58473 7365.93 19 438.668 182.117 
-0.3049 253.38 5.34868 7424.34 19 297.527 102.766 
-0.3041 281.043 5.93264 7406.93 19 323.087 160.171 
-0.3033 204.19 4.53717 7322.38 20 410.828 0 
-0.3025 328.086 5.10313 7424.15 14 285.353 0 
-0.3017 203.504 5.20023 7430.39 23 263.517 94.9884 
-0.3009 234.927 4.69814 7444.23 18 471.387 81.8019 
-0.3001 217.594 5.31853 7410.39 22 244.007 189.669 
-0.2993 389.702 9.09229 7373.34 21 262.628 156.064 
-0.2985 285.861 6.35194 7428.51 20 297.508 100.707 
-0.2977 177.452 2.76013 7430.17 14 248.865 88.5933 
-0.2969 316.813 8.44765 7403.9 24 366.444 93.536 
-0.2961 267.74 5.94929 7349.1 20 482.826 78.8022 
-0.2953 194.452 5.401 7488.11 25 348.945 73.7654 
-0.2945 329.045 8.40823 7427.03 23 395.612 171.12 
-0.2937 286.482 3.81944 7356.97 12 374.86 0 
-0.2929 313.011 6.2597 7432 18 230.467 81.8019 
-0.2921 248.309 7.17276 7354.05 26 253.492 92.3511 
-0.2913 259.548 5.19053 7582.81 18 275.067 163.604 
-0.2905 245.932 3.82529 7359.36 14 166.162 89.7945 
-0.2897 271.969 6.34541 7355.59 21 331.082 195.358 
-0.2889 286.307 4.45329 7413.93 14 326.187 89.7945 
-0.2881 182.69 5.27728 7355.47 26 191.381 73.0127 
-0.2873 366.922 9.37611 7422.56 23 497.134 151.312 
-0.2865 243.966 5.42102 7467.19 20 342.793 157.604 
-0.2857 291.042 10.3473 7424.53 32 371.917 137.439 
-0.2849 308.209 6.16367 7456.22 18 327.398 0 
-0.2841 200.904 4.46416 7408.36 20 270.737 158.557 
-0.2833 267.298 7.7213 7407.83 26 301.124 292.382 
-0.2825 126.566 2.67172 7404.26 19 220.286 0 
-0.2817 242.785 4.31582 7468.38 16 292.987 84.6795 
-0.2809 217.622 4.59387 7370.5 19 285.82 0 
-0.2801 265.188 7.0711 7474.99 24 231.463 94.4034 
-0.2793 337.185 6.74314 7378.35 18 377.443 105.023 
-0.2785 269.203 5.68271 7450.53 19 307.37 182.117 
-0.2777 258.495 5.45667 7381.7 19 422.283 80.3645 
-0.2769 240.217 6.40527 7338.01 24 404.961 93.536 