ITEM: TIMESTEP
13000
ITEM: NUMBER OF CELLS
5000
ITEM: BOX BOUNDS or pp pp
-0.5 0.5
0 0.0002
-0.5 0.5
ITEM: CELLS xc c_1[1] c_1[2] c_2[1] c_2[2] c_2[3] c_3[1] 
-0.4999 342.461 6.46817 7320.43 17 332.553 190.887 
-0.4991 278.57 6.18993 7376.29 20 394.615 79.0455 
-0.4983 314.775 6.99442 7422.11 20 398.06 0 
-0.4975 298.84 7.96841 7462.13 24 291.198 169.219 
-0.4967 279.596 6.52337 7370.71 21 229.299 156.064 
-0.4959 265.176 7.36539 7375.54 25 290.783 185.143 
-0.4951 298.865 6.30885 7333.85 19 327.411 184.156 
-0.4943 207.783 5.30956 7339.04 23 384.063 75.4912 
-0.4935 373.7 7.88857 7356.66 19 304.49 80.0856 
-0.4927 286.794 7.00993 7292.97 22 250.077 76.7031 
-0.4919 309.781 8.26015 7375.67 24 408.796 0 
-0.4911 236.707 4.47076 7506.35 17 316.453 0 
-0.4903 245.132 4.0852 7403.39 15 204.003 259.537 
-0.4895 264.484 5.58308 7413.39 19 291.867 102.032 
-0.4887 257.991 6.0193 7466.46 21 242.435 136.644 
-0.4879 259.973 5.48787 7494.91 19 412.842 80.3645 
-0.4871 294.35 5.88651 7422.57 18 241.458 0 
-0.4863 155.791 2.07704 7344.3 12 306.193 246.584 
-0.4855 239.364 6.11658 7376.97 23 316.292 75.6561 
-0.4847 238.943 6.63674 7420.09 25 204.731 240.69 
-0.4839 286.857 8.60501 7397.89 27 316.938 104.194 
-0.4831 244.732 3.26283 7423.76 12 256.198 93.536 
-0.4823 259.153 3.16716 7411.36 11 202.572 0 
-0.4815 326.863 5.81042 7401.16 16 290.063 0 
-0.4807 256.43 5.98287 7448.88 21 205.319 77.8293 
-0.4799 242.504 6.19681 7346.67 23 451.09 151.312 
-0.4791 306.792 6.47619 7391.72 19 327.951 157.303 
-0.4783 287.151 8.6138 7456.84 27 347.836 89.7164 
-0.4775 337.858 7.8827 7356.08 21 408.318 78.0321 
-0.4767 411.122 10.0488 7422.47 22 258.252 76.8802 
-0.4759 292.047 5.84046 7355.03 18 240.577 81.4807 
-0.4751 286.571 5.41255 7415.5 17 269.835 0 
-0.4743 273.882 6.69435 7395.16 22 296.706 77.0444 
-0.4735 340.67 9.84076 7515.15 26 253.61 0 
-0.4727 220.359 4.40682 7421.76 18 296.69 164.227 
-0.4719 265.369 7.07592 7410.67 24 455.473 74.8155 
-0.4711 387.609 7.32089 7374.76 17 323.978 83.3767 
-0.4703 224.924 5.24778 7372.03 21 359.673 117.326 
-0.4695 359.525 7.1899 7363.23 18 321.701 82.1134 
-0.4687 375.188 7.50313 7470.11 18 517.295 81.8019 
-0.4679 307.091 10.5767 7426 31 370.968 138.575 
-0.4671 246.435 5.20208 7426.52 19 222.128 0 
-0.4663 204.759 3.41236 7341.81 15 330.597 0 
-0.4655 367.729 8.57964 7444.15 21 403.99 156.443 
-0.4647 285.888 8.89354 7406.64 28 299.91 142.677 
-0.4639 383.941 11.5173 7444.05 27 222.099 144.2 
-0.4631 263.675 5.85895 7339.76 20 441.222 0 
-0.4623 293.085 7.1637 7466.77 22 332.419 0 
-0.4615 232.948 6.98786 7413.6 27 277.851 144.2 
-0.4607 314.403 4.8903 7333.72 14 270.386 178.388 
-0.4599 318.037 9.18697 7487.49 26 310.932 0 
-0.4591 246.783 5.48361 7376.34 20 177.578 0 
-0.4583 263.083 8.18412 7396.47 28 305.238 142.497 
-0.4575 247.414 4.39811 7361.83 16 206.221 0 
-0.4567 343.748 6.49247 7418.33 17 278.24 166.01 
-0.4559 142.828 2.85633 7361.47 18 429.809 81.4807 
-0.4551 283.512 5.98476 7397.3 19 322.874 80.3645 
-0.4543 388.669 11.2273 7395.99 26 244.558 91.267 
-0.4535 181.5 3.83136 7383.85 19 331.054 0 
-0.4527 438.167 9.73623 7443.06 20 330.642 214.421 
-0.4519 155.203 2.5865 7461.24 15 263.156 133.899 
-0.4511 338.732 9.40844 7397.1 25 275.629 92.9674 
-0.4503 238.849 3.98048 7422.05 15 219.25 87.5423 
-0.4495 197.207 5.03932 7380.01 23 241.4 171.758 
-0.4487 296.665 6.59201 7400.95 20 173.535 79.0455 
-0.4479 314.628 7.69027 7442.02 22 330.942 0 
-0.4471 316.06 8.07641 7354.05 23 288.44 190.928 
-0.4463 204.98 3.87151 7318.69 17 435.039 106.568 
-0.4455 244.599 8.15263 7414.34 30 262.186 112.106 
-0.4447 281.582 4.06695 7408.75 13 384.411 0 
-0.4439 314.346 5.23866 7263.68 15 268.326 0 
-0.4431 217.848 4.3566 7433.72 18 463.812 105.023 
-0.4423 225.626 7.01889 7418.1 28 321.474 89.1941 
-0.4415 284.662 6.32529 7462.85 20 281.378 79.2785 
-0.4407 253.517 6.19656 7318.28 22 296.412 174.492 
-0.4399 254.756 4.81165 7428.66 17 407.264 83.0049 
-0.4391 230.217 4.34818 7325.83 17 247.051 0 
-0.4383 442.725 3.93501 7404.63 8 359.289 113.808 
-0.4375 308.45 7.88195 7464.44 23 361.104 75.6561 
-0.4367 187.13 3.95019 7375.42 19 280.374 80.8879 
-0.4359 405.322 7.20512 7326.69 16 416.733 0 
-0.4351 250.805 6.96622 7430.6 25 260.321 373.304 
-0.4343 257.119 3.9993 7401.95 14 293.758 115.375 
-0.4335 183.091 3.66152 7520.53 18 260.259 82.1134 
-0.4327 249.947 7.22009 7330.65 26 359.839 0 
-0.4319 259.576 5.47948 7352.56 19 356.742 80.0856 
-0.4311 225.15 4.00232 7350.23 16 298.304 111.396 
-0.4303 275.243 6.116 7484.45 20 275.426 0 
-0.4295 239.96 5.5986 7411.78 21 253.441 135.104 
-0.4287 240.555 7.21605 7313.08 27 429.995 234.197 
-0.4279 266.326 7.10143 7384.29 24 345.929 0 
-0.4271 348.685 10.0723 7405.91 26 274.047 146.214 
-0.4263 261.493 4.9389 7405.13 17 291.445 0 
-0.4255 305.928 6.45794 7328.95 19 375.504 0 
-0.4247 269.772 6.8936 7423.96 23 294.954 75.4912 
-0.4239 297.062 4.62058 7401.92 14 303.19 89.1941 
-0.4231 281.283 8.7503 7391.31 28 282.174 160.232 
-0.4223 274.667 4.5774 7361.97 15 353.126 0 
-0.4215 369.176 11.4845 7419 28 353.616 177.187 
-0.4207 279.915 7.77478 7426.89 25 400.047 92.5717 
-0.4199 290.118 6.76885 7483.07 21 471.368 211.672 
-0.4191 264.447 5.87611 7418.05 20 240.294 101.378 
-0.4183 157.198 2.61974 7352.8 15 484.647 86.531 
-0.4175 252.05 3.92046 7521.2 14 252.776 115.375 
-0.4167 253.685 4.22773 7270.07 15 334.024 0 
-0.4159 227.463 5.05431 7299.5 20 248.27 79.0455 
-0.4151 217.479 3.86597 7516.95 16 394.097 85.1125 
-0.4143 318.263 6.36473 7384.34 18 226.809 105.023 
-0.4135 367.765 8.17188 7373.14 20 144.975 100.707 
-0.4127 267.668 6.24507 7355.49 21 246.267 0 
-0.4119 190.056 3.58965 7315.21 17 256.982 84.0885 
-0.4111 309.363 9.28012 7437.07 27 472.494 181.403 
-0.4103 333.558 7.04119 7343.66 19 306.584 161.215 
-0.4095 209.084 5.3428 7433.08 23 355.144 75.8112 
-0.4087 345.456 6.52474 7312.06 17 216.401 83.0049 
-0.4079 267.831 5.95131 7314.64 20 343.686 100.707 
-0.4071 235.348 5.491 7315.26 21 241.888 0 
-0.4063 327.487 6.54918 7324.9 18 451.828 204.773 
-0.4055 375.207 10.0047 7478.47 24 286.911 0 
-0.4047 248.974 5.5323 7362.62 20 387.202 79.2785 
-0.4039 337.998 9.01252 7397.01 24 372.82 109.904 
-0.4031 231.551 4.63064 7364.55 18 263.995 0 
-0.4023 225.801 6.27173 7393.48 25 289.135 166.852 
-0.4015 361.604 6.82973 7323.58 17 285.832 0 
-0.4007 161.667 3.95152 7471.39 22 280.024 76.5158 
-0.3999 241.599 5.63684 7353.02 21 317.889 78.2215 
-0.3991 239.774 5.86066 7343.1 22 246.362 97.612 
-0.3983 332.592 7.39032 7345.98 20 285.501 0 
-0.3975 239.74 5.06076 7547.27 19 294.136 224.369 
-0.3967 269.689 5.39333 7430.06 18 264.831 82.1134 
-0.3959 238.452 4.50372 7360.69 17 502.123 0 
-0.3951 250.083 5.83478 7412.09 21 230.884 115.375 
-0.3943 253.785 5.63919 7393.05 20 383.584 0 
-0.3935 270.667 6.91647 7310.59 23 292.354 111.882 
-0.3927 265.161 5.00818 7391.31 17 280.094 108.49 
-0.3919 306.208 8.50507 7309.37 25 329.99 92.1796 
-0.3911 306.53 6.8112 7490.9 20 245.944 0 
-0.3903 230.83 3.07748 7417.25 12 339.526 0 
-0.3895 354.996 8.28254 7370.15 21 317.777 0 
-0.3887 250.234 4.44824 7419.1 16 361.181 85.1125 
-0.3879 301.603 5.69647 7388.81 17 343.786 251.249 
-0.3871 318.396 5.30615 7450.11 15 308.47 0 
-0.3863 307.694 5.81151 7394.96 17 332.02 84.0885 
-0.3855 312.152 8.67015 7451.05 25 345.226 200.636 
-0.3847 260.747 4.92482 7474.42 17 309.329 127.977 
-0.3839 189.865 4.21887 7370.43 20 242.283 197.895 
-0.3831 334.935 4.46543 7419.07 12 245.402 0 
-0.3823 260.777 7.24319 7451.88 25 274.659 73.9933 
-0.3815 207.349 4.37701 7309.23 19 408.704 182.117 
-0.3807 240.758 4.54727 7463.06 17 325.879 83.0049 
-0.3799 302.035 8.38915 7484.64 25 257.643 181.83 
-0.3791 209.434 4.18833 7351.49 18 317.417 162.961 
-0.3783 296.491 6.91753 7419.57 21 400.682 177.448 
-0.3775 313.7 6.62201 7394.12 19 363.16 80.3645 
-0.3767 266.075 6.50351 7368.98 22 257.467 114.913 
-0.3759 239.998 6.39941 7419.33 24 477.351 74.9398 
-0.3751 203.514 4.74828 7432.22 21 455.316 100.026 
-0.3743 275.683 5.81949 7401.89 19 282.202 80.8879 
-0.3735 269.258 7.17963 7406.85 24 384.364 74.8155 
-0.3727 239.356 6.11637 7470.73 23 344.952 75.6561 
-0.3719 172.755 4.22254 7421.6 22 381.446 76.5158 
-0.3711 321.473 6.42892 7393.13 18 259.865 163.604 
-0.3703 244.005 3.25313 7363.55 12 331.787 0 
-0.3695 235.654 5.49814 7447.69 21 373.573 197.634 
-0.3687 317.437 7.75893 7445.22 22 266.574 0 
-0.3679 200.503 4.23248 7454.39 19 435.976 102.766 
-0.3671 241.801 7.25342 7425.57 27 251.758 143.998 
-0.3663 260.017 7.2221 7402.78 25 367.402 73.885 
-0.3655 281.761 6.57387 7349.17 21 486.267 155.659 
-0.3647 373.125 7.87642 7345.44 19 257.549 80.3645 
-0.3639 203.024 3.83457 7398.68 17 507.528 83.0049 
-0.3631 240.7 5.88328 7320.49 22 289.049 77.0444 
-0.3623 307.094 5.459 7352.64 16 408.768 196.935 
-0.3615 250.491 6.67921 7369.07 24 304.535 149.631 
-0.3607 255.911 6.5394 7407.7 23 248.35 0 
-0.3599 203.284 5.1946 7360.06 23 354.944 171.758 
-0.3591 284.684 7.27465 7382.42 23 373.663 111.882 
-0.3583 272.398 6.35543 7382.11 21 347.631 155.182 
-0.3575 269.156 8.9711 7362.11 30 268.214 70.0973 
-0.3567 327.881 9.83561 7406.39 27 297.385 162.565 
-0.3559 390.92 8.25206 7483.23 19 317.903 80.3645 
-0.3551 234.825 3.91342 7318.37 15 310.553 86.531 
-0.3543 315.924 5.96695 7431.32 17 390.49 189.573 
-0.3535 168.282 2.61751 7428.5 14 411.58 115.375 
-0.3527 322.72 6.09531 7343.1 17 316.722 83.3767 
-0.3519 394.25 6.13227 7408.34 14 491.946 206.018 
-0.3511 207.734 5.53911 7361.53 24 324.773 169.219 
-0.3503 276.009 4.90641 7404.52 16 318.374 84.6795 
-0.3495 302.476 7.05718 7488.34 21 475.539 0 
-0.3487 269.89 7.19646 7393.11 24 242.399 149.88 
-0.3479 178.468 3.1725 7357.8 16 281.402 84.6795 
-0.3471 246.311 6.02042 7328.09 22 267.647 76.7031 
-0.3463 276.832 6.45888 7388.1 21 341.243 0 
-0.3455 314.806 9.44339 7332.93 27 261.671 162.144 
-0.3447 257.175 7.14317 7450.32 25 255.875 147.531 
-0.3439 276.491 7.37247 7337.65 24 313.917 223.99 
-0.3431 265.282 3.83153 7425.3 13 287.478 90.9094 
-0.3423 287.95 6.07845 7380.63 19 276.585 161.267 
-0.3415 312.096 8.66862 7423.94 25 360.709 107.412 
-0.3407 288.801 6.41727 7428.61 20 303.346 78.8022 
-0.3399 256.92 5.13798 7459.76 18 343.725 0 
-0.3391 318.163 7.42318 7411.73 21 291.627 176.646 
-0.3383 270.458 6.61064 7373.6 22 291.033 77.0444 
-0.3375 308.191 6.50572 7415.04 19 440.483 224.369 
-0.3367 224.87 5.49635 7393.62 22 291.114 226.307 
-0.3359 387.597 10.7657 7369.02 25 453.288 197.941 
-0.3351 202.185 4.268 7424.68 19 356.775 0 
-0.3343 308.461 7.53954 7374.34 22 275.377 115.841 
-0.3335 161.73 3.23433 7341.21 18 211.298 82.1134 
-0.3327 262.191 5.53468 7307.57 19 272.892 182.117 
-0.3319 237.849 5.54936 7373.86 21 318.68 0 
-0.3311 286.971 7.97074 7404.16 25 272.71 166.337 
-0.3303 319.118 5.67274 7416.26 16 349.693 0 
-0.3295 336.291 7.84613 7315.13 21 289.687 115.375 
-0.3287 346.212 10.0008 7390.35 26 268.654 146.025 
-0.3279 295.006 6.88291 7437.24 21 244.117 155.232 
-0.3271 308.458 7.19676 7380.34 21 293.367 0 
-0.3263 240.869 5.0846 7394.45 19 357.222 182.117 
-0.3255 279.806 5.90652 7381.66 19 326.787 80.3645 
-0.3247 280.211 6.84903 7392.7 22 289.139 0 
-0.3239 153.268 3.40568 7380.84 20 348.36 78.8022 
-0.3231 245.88 3.82449 7369 14 352.333 88.5933 
-0.3223 366.294 13.4297 7387.84 33 257.401 165.379 
-0.3215 325.59 9.7669 7365.17 27 329.75 162.144 
-0.3207 306.116 8.5025 7384.77 25 348.669 167.854 
-0.3199 266.446 4.4404 7374.34 15 389.444 87.039 
-0.3191 180.193 2.20217 7437.72 11 307.49 0 
-0.3183 240.73 6.15148 7387.18 23 220.508 94.9884 
-0.3175 314.355 8.03284 7414.37 23 368.723 76.0813 
-0.3167 303.775 8.1 7476.22 24 389.151 74.8155 
-0.3159 353.375 9.02995 7437.01 23 447.483 75.6561 
-0.3151 286.274 3.49862 7376.68 11 165.178 0 
-0.3143 365.474 8.12096 7468.72 20 367.325 78.8022 
-0.3135 306.884 9.20574 7428.72 27 222.414 72.1001 
-0.3127 324.685 6.85389 7384.81 19 378.017 121.603 
-0.3119 261.571 6.68403 7420.57 23 343.275 151.859 
-0.3111 283.843 8.19922 7394.37 26 296.391 179.256 
-0.3103 225.425 5.76037 7357.61 23 371.577 151.312 
-0.3095 290.228 7.09387 7430.34 22 314.438 96.5489 
-0.3087 232.171 4.38509 7467.9 17 292.16 83.0049 
-0.3079 297.375 7.59895 7410.46 23 285.469 171.12 
-0.3071 232.846 5.69132 7353.13 22 212.611 0 
-0.3063 292.693 7.15413 7346.35 22 249.457 154.639 
-0.3055 274.678 7.01897 7458.75 23 294.704 223.764 
-0.3047 339.597 8.30056 7517.28 22 324.357 153.406 
-0.3039 339.626 7.92394 7423.42 21 363.116 175.848 
-0.3031 248.657 4.4202 7434.86 16 323.636 170.225 
-0.3023 317.024 9.15772 7380.98 26 285.286 73.0127 
-0.3015 208.207 2.77586 7334.69 12 374.628 0 
-0.3007 167.763 2.60943 7305.6 14 300.019 89.1941 
-0.2999 256.138 3.13031 7227.31 11 273.296 0 
-0.2991 366.223 9.35825 7395.96 23 395.189 95.9469 
-0.2983 206.648 5.96932 7449.55 26 393.245 182.534 
-0.2975 363.458 8.47999 7328.9 21 242.16 98.8171 
-0.2967 171.09 2.85126 7411.82 15 239.784 0 
-0.2959 224.401 1.7452 7417.76 7 188.261 118.36 
-0.2951 302.64 8.40596 7481.09 25 327.05 0 
-0.2943 244.193 5.69737 7366.63 21 283.273 155.232 
-0.2935 233.816 6.49434 7500.11 25 373.36 165.816 
-0.2927 286.212 6.35973 7369.68 20 429.522 118.849 
-0.2919 303.616 5.73449 7500.61 17 271.482 0 
-0.2911 296.106 6.90857 7420.69 21 313.768 98.8171 
-0.2903 271.312 6.02866 7406.21 20 288.025 0 
-0.2895 214.328 5.00058 7333.71 21 273.987 78.0321 
-0.2887 204.674 3.86574 7342.84 17 392.504 0 
-0.2879 424.94 11.3308 7501.74 24 390.571 74.8155 
-0.2871 233.303 2.85124 7450.33 11 320.745 0 
-0.2863 386.68 7.30335 7401.99 17 289.241 107.51 
-0.2855 237.948 6.87349 7397.9 26 347.196 164.174 
-0.2847 268.198 6.55539 7403.17 22 305.793 76.5158 
-0.2839 277.435 6.16471 7405.66 20 334.54 78.8022 
-0.2831 297.731 6.2849 7472.39 19 361.699 102.766 
-0.2823 200.797 4.23869 7385.82 19 160.397 0 
-0.2815 297.358 8.58963 7427.04 26 326.975 73.2557 
-0.2807 354.604 7.87942 7394.96 20 350.974 0 
-0.2799 186.228 2.89663 7390 14 302.701 0 
-0.2791 357.336 8.33715 7467.73 21 381.533 0 
-0.2783 441.678 12.7585 7468.29 26 353.298 179.256 
-0.2775 306.279 8.16675 7435.85 24 300.218 0 
-0.2767 222.561 3.70903 7290.79 15 419.809 113.351 
-0.2759 174.982 3.11053 7552.53 16 219.689 169.359 
-0.2751 312.893 7.30023 7393.21 21 330.424 155.232 
-0.2743 272.82 7.27459 7358.8 24 273.624 185.454 
-0.2735 183.184 2.03521 7278.53 10 179.845 133.899 
-0.2727 288.673 8.01803 7353.78 25 346.198 147.531 
-0.2719 233.043 6.21397 7478.81 24 363.792 243.278 
-0.2711 418.913 7.91214 7447.06 17 298.06 107.51 
-0.2703 296.246 10.2032 7399.2 31 418.656 0 
-0.2695 248.397 5.2435 7445.36 19 373.406 121.603 
-0.2687 261.413 7.55131 7281.5 26 311.066 72.9075 
-0.2679 266.276 6.50843 7431.37 22 444.042 194.151 
-0.2671 221.147 4.66827 7442.56 19 241.635 80.0856 
-0.2663 283.657 6.93326 7382.07 22 232.21 173.065 
-0.2655 281.831 8.45424 7439.42 27 419.522 144.2 
-0.2647 252.144 5.88286 7346.33 21 401.014 98.2313 
-0.2639 330.732 9.18623 7398.91 25 346.257 73.885 
-0.2631 274.955 5.49865 7353.63 18 355.063 162.961 
-0.2623 259.164 5.47079 7369.42 19 345.826 267.293 
-0.2615 231.635 4.63232 7351.7 18 265.421 104.194 
-0.2607 244.806 5.16769 7227.79 19 302.908 80.6333 
-0.2599 352.913 6.66557 7355.97 17 377.493 83.3767 
-0.2591 256.083 6.25929 7334.25 22 395.609 97.0757 
-0.2583 364.108 9.30421 7398.04 23 281.929 75.9539 
-0.2575 266.537 4.73803 7459.9 16 249.243 85.5383 
-0.2567 255.021 4.25 7459.19 15 272.304 0 
-0.2559 199.994 4.44393 7420.24 20 302.319 178.855 
-0.2551 296.242 7.24088 7311.84 22 286.701 76.8802 
-0.2543 287.296 7.6606 7427.01 24 406.921 169.219 
-0.2535 364.296 7.69006 7407.77 19 269.62 0 
-0.2527 231.118 5.64907 7378.35 22 383.626 76.7031 
-0.2519 228.71 5.84431 7349.08 23 346.232 75.4912 
-0.2511 212.698 4.25361 7401.76 18 208.687 0 
-0.2503 236.644 6.5729 7408.63 25 268.116 186.732 
-0.4993 219.688 4.88155 7388.92 20 260.827 101.378 
-0.4985 297.567 6.28145 7366.34 19 193.446 204.064 
-0.4977 353.488 5.89097 7486.89 15 170.993 113.351 
-0.4969 252.107 5.32183 7382.59 19 213.836 80.0856 
-0.4961 311.501 7.61383 7331.71 22 259.427 174.492 
-0.4953 255.414 7.37802 7395 26 242.626 91.6271 
-0.4945 318.313 7.42668 7410.72 21 262.975 156.064 
-0.4937 250.521 6.40167 7447.47 23 469.879 151.312 
-0.4929 493.237 10.4119 7405.25 19 206.333 80.0856 
-0.4921 265.401 5.60245 7417.63 19 280.364 80.0856 
-0.4913 258.769 7.47492 7331.31 26 325.739 213.923 
-0.4905 268.405 7.15686 7463.26 24 199.226 0 
-0.4897 266.469 5.625 7453.86 19 338.882 121.603 
-0.4889 281.189 7.49774 7391.72 24 259.217 223.553 
-0.4881 258.375 6.02826 7374.8 21 289.057 77.8293 
-0.4873 310.803 7.25147 7357.15 21 324.001 0 
-0.4865 249.537 4.99033 7482.46 18 296.35 82.1134 
-0.4857 254.389 5.36998 7601.11 19 409.494 80.0856 
-0.4849 328.327 6.20121 7382.98 17 239.733 83.3767 
-0.4841 275.391 6.73122 7557.18 22 224.817 0 
-0.4833 264.662 5.58685 7537.88 19 215.333 80.8879 
-0.4825 278.544 6.80828 7459.06 22 299.971 76.8802 
-0.4817 283.693 6.61895 7339.17 21 284 78.3935 
-0.4809 257.141 5.14239 7420.92 18 286.705 350.376 
-0.4801 354.529 3.93888 7370.38 10 271.618 263.668 
-0.4793 321.936 5.00747 7480.06 14 232.51 116.824 
-0.4785 294.725 10.4782 7366.24 32 335.95 85.1125 
-0.4777 255.061 5.10079 7349.24 18 427.622 0 
-0.4769 228.678 5.0813 7405.59 20 422.876 100.707 
-0.4761 240.419 3.47243 7453.15 13 342.61 90.9094 
-0.4753 246.744 4.93447 7367.06 18 296.208 81.8019 
-0.4745 276.081 6.74809 7446.52 22 371.332 98.7099 
-0.4737 254.531 6.22134 7360.66 22 278.675 174.492 
-0.4729 328.244 7.2937 7376.86 20 379.982 159.397 
-0.4721 212.77 4.96422 7379.46 21 366.023 98.8171 
-0.4713 200.496 3.56408 7301.25 16 390.504 84.6795 
-0.4705 178.264 2.57471 7363.14 13 143.975 0 
-0.4697 250.488 5.56593 7362.4 20 361.218 0 
-0.4689 307.954 4.44786 7318.3 13 400.841 0 
-0.4681 340.221 8.31583 7351.29 22 382.719 306.763 
-0.4673 294.073 5.22752 7355.28 16 301.013 84.6795 
-0.4665 359.225 7.1839 7428 18 375.184 0 
-0.4657 241.158 5.89449 7344.33 22 518.826 194.151 
-0.4649 247.935 6.06013 7328.22 22 336.239 174.492 
-0.4641 226.365 2.76646 7532.68 11 321.197 193.098 
-0.4633 339.85 5.66369 7371.98 15 274.408 174.078 
-0.4625 320.092 6.40131 7390.54 18 276.206 0 
-0.4617 236.139 4.19768 7405.46 16 185.775 0 
-0.4609 247.181 6.59094 7363.19 24 346.447 0 
-0.4601 284.248 3.47385 7367.41 11 335.119 228.245 
-0.4593 241.063 6.15999 7343.06 23 418.027 75.9539 
-0.4585 386.066 9.86531 7396.56 23 264.692 75.6561 
-0.4577 258.816 7.76382 7358.66 27 323.142 72.1001 
-0.4569 310.084 5.85666 7460.9 17 264.134 167.479 
-0.4561 279.496 6.83156 7434.37 22 434.654 99.8309 
-0.4553 239.782 5.86084 7493.43 22 326.298 191.793 
-0.4545 298.051 4.63596 7445.09 14 384.55 0 
-0.4537 295.138 8.85341 7436.82 27 231.254 180.087 
-0.4529 250.289 4.72728 7419.95 17 339.707 0 
-0.4521 319.844 6.39634 7443.69 18 243.52 0 
-0.4513 252.773 6.17839 7351.25 22 295.375 77.0444 
-0.4505 247.436 7.14754 7461.78 26 332.025 73.0127 
-0.4497 201.299 4.2493 7380.5 19 333.609 0 
-0.4489 250.117 5.55769 7300.8 20 305.601 236.356 
-0.4481 258.499 6.89272 7370.87 24 238.791 74.5338 
-0.4473 234.453 3.90723 7441.49 15 481.761 86.531 
-0.4465 261.065 6.38106 7354.14 22 206.886 173.065 
-0.4457 323.529 6.47004 7430.51 18 234.079 107.683 
-0.4449 271.105 6.62646 7348.65 22 353.566 77.0444 
-0.4441 244.8 6.79943 7301.69 25 420.002 73.6366 
-0.4433 205.422 5.47745 7369.68 24 232.642 74.9398 
-0.4425 267.24 7.12581 7429.62 24 246.797 168.07 
-0.4417 244.876 4.89711 7347.22 18 360.136 81.8019 
-0.4409 225.98 7.02992 7396.07 28 393.131 159.842 
-0.4401 304.533 5.75182 7391.88 17 297.414 166.753 
-0.4393 258.085 6.02149 7418.82 21 466.849 155.232 
-0.4385 259.349 5.18656 7374.96 18 258.732 82.1134 
-0.4377 301.52 7.36987 7326.94 22 491.971 76.8802 
-0.4369 288.661 3.84849 7334.1 12 302.271 95.2879 
-0.4361 288.682 6.73534 7481.7 21 242.698 0 
-0.4353 254.86 6.7957 7397.26 24 381.546 74.9398 
-0.4345 188.382 4.18592 7372.73 20 348.924 79.0455 
-0.4337 169.931 2.83195 7529.85 15 275.537 176.068 
-0.4329 277.097 5.23361 7452.36 17 394.499 106.568 
-0.4321 308.225 5.47909 7467 16 408.117 0 
-0.4313 236.319 5.25109 7443.66 20 335.189 79.4976 
-0.4305 260.404 8.96872 7419.59 31 314.584 138.575 
-0.4297 287.773 6.71415 7356.22 21 296.649 116.331 
-0.4289 226.162 4.77413 7483.35 19 371.065 201.968 
-0.4281 276.656 5.84003 7331.75 19 275.82 0 
-0.4273 308.391 6.1673 7270.3 18 213.562 140.733 
-0.4265 331.562 6.26232 7418 17 300.113 0 
-0.4257 186.443 4.14282 7401.82 20 253.241 0 
-0.4249 260.349 4.91728 7338.47 17 234.999 83.3767 
-0.4241 284.975 7.28208 7400.57 23 313.465 95.4641 
-0.4233 211.184 5.63112 7411.63 24 329.124 0 
-0.4225 248.475 4.41696 7421.19 16 392.58 0 
-0.4217 199.876 4.44132 7512.67 20 350.831 178.855 
-0.4209 242.841 4.58662 7314.53 17 491.415 84.7118 
-0.4201 195.263 4.7727 7439.11 22 289.564 0 
-0.4193 338.372 11.2781 7393.21 30 291.819 87.2916 
-0.4185 320.401 5.69555 7419.5 16 327.398 85.1125 
-0.4177 364.832 7.70137 7360.33 19 182.942 183.131 
-0.4169 202.717 4.72967 7403.82 21 301.269 77.8293 
-0.4161 245.321 5.17857 7426.58 19 388.253 0 
-0.4153 250.665 5.56987 7447.95 20 380.9 157.604 
-0.4145 316.908 8.09807 7343.16 23 204.21 0 
-0.4137 186.184 4.55079 7344.2 22 297.222 211.093 
-0.4129 240.561 6.6817 7459.5 25 337.781 135.074 
-0.4121 197.407 3.28985 7414.21 15 445.158 87.5423 
-0.4113 258.311 7.1747 7389.97 25 404.017 73.885 
-0.4105 260.238 3.46955 7479.09 12 212.457 0 
-0.4097 218.154 5.57457 7442.04 23 267.66 0 
-0.4089 241.349 6.97172 7370.77 26 303.762 145.815 
-0.4081 317.07 9.15904 7437.22 26 329.071 0 
-0.4073 301.185 6.35782 7406.56 19 348.538 103.523 
-0.4065 361.107 9.62871 7484.77 24 353.82 74.6794 
-0.4057 162.041 3.6006 7415.93 20 463.531 101.378 
-0.4049 244.651 4.6208 7409.59 17 373.445 83.7397 
-0.4041 286.02 6.99102 7307.23 22 409.807 97.0757 
-0.4033 431.717 7.19469 7316.73 15 238.838 173.062 
-0.4025 357.639 8.34422 7409.49 21 240.644 175.848 
-0.4017 255.198 3.11882 7361.26 11 113.453 0 
-0.4009 248.924 5.25463 7418.21 19 283.845 80.3645 
-0.4001 238.347 4.76654 7400.41 18 254.108 186.825 
-0.3993 202.307 4.04581 7304.21 18 210.608 81.4807 
-0.3985 247.85 6.33342 7413.66 23 366.064 75.8112 
-0.3977 265.167 8.83816 7388.38 30 348.806 87.2916 
-0.3969 290.59 6.45702 7438.09 20 160.747 101.378 
-0.3961 249.396 6.37292 7423.87 23 283.882 75.4912 
-0.3953 242.264 6.99816 7468.45 26 376.171 146.214 
-0.3945 216.44 5.77126 7402.25 24 317.497 149.068 
-0.3937 228.063 6.33454 7407.82 25 354.904 92.5717 
-0.3929 272.523 5.14724 7447.33 17 338.345 0 
-0.3921 237.13 5.26912 7379.95 20 348.487 0 
-0.3913 274.019 4.56661 7464.56 15 529.832 0 
-0.3905 297.266 8.58696 7376.97 26 339.1 120.776 
-0.3897 271.39 6.03039 7400.33 20 404.165 0 
-0.3889 242.006 5.37745 7403.62 20 261.568 79.0455 
-0.3881 231.736 2.83209 7371.65 11 218.126 0 
-0.3873 300.194 5.00282 7473.34 15 318.417 87.039 
-0.3865 296.048 9.53854 7395.05 29 381.881 175.619 
-0.3857 237.235 4.48074 7416.2 17 250.594 0 
-0.3849 278.754 8.05223 7377.15 26 275.04 179.974 
-0.3841 180.935 3.21635 7493.09 16 270.139 135.503 
-0.3833 326.998 13.4421 7432.34 37 272.937 93.162 
-0.3825 263.607 4.39308 7378.55 15 197.002 0 
-0.3817 334.041 7.05138 7366.47 19 349.205 0 
-0.3809 313.964 9.76694 7354.7 28 376.726 104.822 
-0.3801 214.012 3.80435 7423.75 16 310.604 84.6795 
-0.3793 328.245 7.65841 7434.77 21 350.832 0 
-0.3785 308.981 6.1791 7379.5 18 247.313 81.4807 
-0.3777 371.632 8.67069 7396.42 21 252.576 99.4156 
-0.3769 323.044 4.6658 7478.04 13 279.054 92.3511 
-0.3761 260.85 5.21656 7393.64 18 516.359 81.8019 
-0.3753 215.817 5.51485 7373.84 23 247.562 187.538 
-0.3745 224.265 4.98326 7431.03 20 249.902 100.052 
-0.3737 260.154 7.51493 7457.4 26 244.194 184.702 
-0.3729 213.961 5.46744 7439.5 23 234.138 190.928 
-0.3721 206.572 4.36059 7505.07 19 486.299 0 
-0.3713 230.078 4.60117 7372.78 18 302.992 107.683 
-0.3705 288.807 5.4548 7417.76 17 388.96 106.568 
-0.3697 222.16 6.91107 7374.55 28 377.645 0 
-0.3689 256.493 7.12422 7376.96 25 237.238 147.77 
-0.3681 270.039 5.10032 7427.35 17 447.827 0 
-0.3673 301.733 8.04553 7429.52 24 368.186 74.6794 
-0.3665 298.674 7.3003 7414.16 22 215.799 129.376 
-0.3657 260.704 5.21364 7418.77 18 367.805 104.194 
-0.3649 248.716 5.52657 7455.69 20 162.673 102.065 
-0.3641 267.961 6.54962 7466.97 22 264.668 230.591 
-0.3633 205.405 3.65133 7367.92 16 413.83 85.1125 
-0.3625 298.358 7.62407 7380.35 23 366.504 112.692 
-0.3617 304.48 9.13363 7392.05 27 290.486 72.1001 
-0.3609 272.307 6.35331 7484.74 21 419.766 0 
-0.3601 316.155 7.37634 7457.1 21 490.254 156.064 
-0.3593 259.217 5.47191 7401.83 19 476.304 160.171 
-0.3585 245.252 6.81198 7375.81 25 502.079 121.108 
-0.3577 337.716 6.00334 7347.23 16 428.513 195.381 
-0.3569 295.612 5.25488 7392.56 16 357.306 131.704 
-0.3561 337.99 9.76335 7439.53 26 396.525 106.349 
-0.3553 171.961 2.29262 7385.44 12 390.054 0 
-0.3545 192.247 3.84462 7476.72 18 301.342 268.574 
-0.3537 274.131 7.61412 7361.55 25 277.45 0 
-0.3529 191.939 4.05171 7343.37 19 335.802 183.131 
-0.3521 323.231 4.6685 7393.32 13 252.146 0 
-0.3513 229.897 6.13007 7354.39 24 303.89 111.396 
-0.3505 352.427 11.7466 7381.42 30 316.003 86.7852 
-0.3497 254.981 5.0992 7423.85 18 246.91 163.604 
-0.3489 248.415 5.51987 7365.78 20 411.246 79.2785 
-0.3481 348.005 7.34616 7331.93 19 415.81 160.729 
-0.3473 317.62 6.35187 7352.69 18 263.586 123.292 
-0.3465 215.065 3.82307 7406.11 16 379.544 85.5383 
-0.3457 191.512 2.76605 7464.55 13 179.007 120.776 
-0.3449 180.502 2.80757 7315.76 14 415.027 0 
-0.3441 246.413 8.76063 7399.38 32 290.252 68.7601 
-0.3433 238.878 3.71556 7344.02 14 283.102 89.7945 
-0.3425 313.495 6.61768 7356.34 19 225.537 80.8879 
-0.3417 289.522 5.78997 7448.24 18 305.373 0 
-0.3409 255.177 9.07221 7459.6 32 315.565 154.087 
-0.3401 301.377 6.36187 7463.07 19 347.743 0 
-0.3393 351.718 9.37836 7409.79 24 271.773 203.871 
-0.3385 296.907 7.25712 7249.06 22 350.359 153.032 
-0.3377 286.846 7.32989 7458.28 23 263.681 95.9469 
-0.3369 233.588 4.67136 7422.57 18 198.54 81.4807 
-0.3361 254.292 5.36794 7390.11 19 329.906 205.533 
-0.3353 329.436 5.49015 7465.93 15 306.449 112.106 
-0.3345 414.814 7.83473 7306.98 17 202.373 166.753 
-0.3337 280.804 4.05572 7420.82 13 392.221 173.621 
-0.3329 284.897 7.91314 7425.48 25 228.507 73.7654 
-0.3321 241.8 6.7161 7364.88 25 340.853 166.852 
-0.3313 343.752 8.02022 7440.48 21 448.246 77.8293 
-0.3305 240.005 6.13294 7372.52 23 296.861 171.12 
-0.3297 344.666 6.12689 7336.61 16 389.524 170.225 
-0.3289 337.644 5.2518 7360.32 14 263.777 0 
-0.3281 197.603 3.2931 7340.43 15 336.101 0 
-0.3273 286.492 6.36596 7377.66 20 402.372 101.378 
-0.3265 276.27 5.83188 7368.34 19 451.292 80.6333 
-0.3257 260.657 4.92311 7378.4 17 189.321 192.23 
-0.3249 217.558 5.07593 7360.72 21 330.462 149.025 
-0.3241 339.182 11.3051 7368.11 30 285.55 86.531 
-0.3233 270.086 4.20099 7402.49 14 332.298 115.375 
-0.3225 283.627 4.72672 7380.03 15 315.865 0 
-0.3217 228.801 6.86346 7382.84 27 370.346 143.998 
-0.3209 221.861 3.45089 7378.3 14 323.56 0 
-0.3201 205.828 3.20151 7310.82 14 260.699 0 
-0.3193 212.016 5.41772 7446.69 23 303.369 95.9469 
-0.3185 256.624 5.9874 7361.46 21 409.538 78.2215 
-0.3177 307.553 6.15055 7425.48 18 493.175 162.961 
-0.3169 270.307 7.2076 7359.96 24 365.377 74.9398 
-0.3161 306.119 4.08125 7491.95 12 415.077 188.807 
-0.3153 288.392 7.3694 7361.41 23 278.83 187.538 
-0.3145 319.445 7.45311 7316.86 21 239.196 77.8293 
-0.3137 313.639 7.31764 7431.02 21 460.997 155.232 
-0.3129 272.488 3.93561 7461.95 13 430.813 0 
-0.3121 233.086 4.14341 7399 16 344.774 85.5383 
-0.3113 235.244 7.05674 7410.65 27 233.926 72.2752 
-0.3105 275.901 6.74368 7325.3 22 255.898 77.0444 
-0.3097 234.48 5.73125 7331.56 22 424.559 209.702 
-0.3089 320.016 6.75534 7404.16 19 292.704 0 
-0.3081 241.593 4.29463 7383.58 16 326.399 0 
-0.3073 192.88 4.28587 7489.34 20 307.187 178.855 
-0.3065 301.699 6.70385 7533.72 20 412.329 158.557 
-0.3057 277.589 6.16812 7282.63 20 326.98 178.855 
-0.3049 275.433 4.28415 7443.76 14 341.954 0 
-0.3041 242.732 8.36008 7432.28 31 263.691 138.686 
-0.3033 255.74 5.11438 7373.57 18 322.892 82.1134 
-0.3025 292.965 6.83528 7321.61 21 381.783 0 
-0.3017 198.689 4.41494 7451.81 20 379.136 78.8022 
-0.3009 305.14 6.44131 7278.01 19 422.956 0 
-0.3001 242.882 5.12707 7428.55 19 373.366 0 
-0.2993 378.764 9.67872 7332.39 23 363.728 170.48 
-0.2985 304.685 5.75467 7302.72 17 241.945 0 
-0.2977 344.554 6.50769 7359.63 17 431.133 0 
-0.2969 234.296 4.68554 7385.82 18 249.73 185.674 
-0.2961 249.786 7.49297 7448.16 27 264.965 72.1001 
-0.2953 276.717 4.30413 7338.64 14 369.398 88.5933 
-0.2945 435.557 5.80694 7417.86 12 316.773 0 
-0.2937 206.388 4.81532 7430.77 21 316.226 0 
-0.2929 239.549 5.32287 7411.97 20 328.625 0 
-0.2921 216.169 4.56319 7510.98 19 270.55 203.483 
-0.2913 306.272 6.12493 7406.75 18 351.95 81.8019 
-0.2905 241.986 5.10817 7408.14 19 170.639 0 
-0.2897 297.855 5.9566 7433.25 18 368.905 82.1134 
-0.2889 316.868 5.63275 7361.02 16 310.811 169.359 
-0.2881 260.156 6.64788 7329.29 23 300.473 112.692 
-0.2873 271.606 3.92286 7338.15 13 405.147 92.3511 
-0.2865 338.225 6.76393 7447.15 18 282.004 82.4105 
-0.2857 338.143 7.88935 7426.61 21 420.778 253.414 
-0.2849 208.977 5.34008 7446.31 23 316.138 152.163 
-0.2841 226.749 8.06151 7375.11 32 420.506 166.702 
-0.2833 284.833 5.69619 7438.65 18 437.419 238.693 
-0.2825 332.289 7.75276 7401.77 21 314.1 200.052 
-0.2817 257.649 6.87007 7397.93 24 375.902 168.07 
-0.2809 259.307 5.47381 7375.49 19 271.845 0 
-0.2801 185.814 4.74818 7406.55 23 338.828 75.6561 
-0.2793 274.617 6.71229 7403.76 22 385.826 0 
-0.2785 247.812 4.40517 7309.66 16 315.402 222.793 
-0.2777 159.197 2.47619 7416.42 14 302.984 0 
-0.2769 239.472 4.25692 7328.81 16 376.742 0 
-0.2761 316.419 6.67939 7378.96 19 376.968 0 
-0.2753 271.557 6.93921 7445.11 23 302.49 191.894 
-0.2745 189.709 2.95078 7404.37 14 358.428 89.1941 
-0.2737 188.182 2.71795 7477.44 13 329.354 92.3511 