ITEM: TIMESTEP
5000
ITEM: NUMBER OF CELLS
5000
ITEM: BOX BOUNDS or pp pp
-0.5 0.5
0 0.0002
-0.5 0.5
ITEM: CELLS xc c_1[1] c_1[2] c_2[1] c_2[2] c_2[3] c_3[1] 
-0.4999 268.593 6.26664 7500.5 21 390.14 78.0321 
-0.4991 278.64 6.19148 7386.05 20 280.702 202.755 
-0.4983 293.254 7.16784 7404.38 22 252.288 76.5158 
-0.4975 327.639 8.3723 7419.93 23 331.748 229.65 
-0.4967 238.715 6.3652 7383.85 24 308.688 74.9398 
-0.4959 370.861 8.24066 7372.9 20 433.66 0 
-0.4951 298.548 8.2923 7456.56 25 295.603 73.885 
-0.4943 364.06 7.28059 7369 18 463.448 0 
-0.4935 221.164 1.96574 7379.53 8 212.823 0 
-0.4927 382.633 8.07714 7361.86 19 291.167 80.6333 
-0.4919 278.688 4.95404 7594.08 16 515.271 131.704 
-0.4911 278.896 4.95773 7467.04 16 325.541 109.19 
-0.4903 274.697 5.79869 7341.1 19 265.201 80.3645 
-0.4895 262.539 5.25034 7431.78 18 280.192 105.023 
-0.4887 243.39 5.67863 7403.76 21 195.16 215.148 
-0.4879 318.961 3.89808 7406.34 11 401.848 0 
-0.4871 313.397 8.35656 7393.75 24 298.792 123.292 
-0.4863 320.868 6.77332 7432.74 19 400.996 80.3645 
-0.4855 247.228 5.21881 7407.94 19 291.119 224.369 
-0.4847 322.209 7.51757 7464 21 192.969 196.463 
-0.4839 259.951 3.75453 7425.45 13 466.54 0 
-0.4831 268.38 4.7708 7444.87 16 270.156 0 
-0.4823 285.524 8.88221 7376.13 28 321.795 191.324 
-0.4815 336.869 6.36256 7411.09 17 361.645 83.7397 
-0.4807 239.304 6.11504 7255.26 23 363.685 151.908 
-0.4799 130.994 2.3286 7406.58 16 245.312 110.269 
-0.4791 295.359 8.53187 7480.75 26 306.448 72.9075 
-0.4783 299.098 4.65224 7405.66 14 399.259 226.905 
-0.4775 300.613 9.01762 7441.22 27 336.757 144.385 
-0.4767 210.286 3.73811 7415.65 16 282.305 84.6795 
-0.4759 266.162 6.20993 7446.92 21 282.808 0 
-0.4751 158.724 2.29248 7403.7 13 253.613 0 
-0.4743 179.098 3.97962 7385.88 20 326.064 100.052 
-0.4735 318.208 7.07069 7506.79 20 392.572 102.065 
-0.4727 234.332 7.81042 7405.5 30 270.304 86.7852 
-0.4719 281.399 6.87806 7483.69 22 303.594 114.017 
-0.4711 355.021 10.6497 7369.59 27 382.568 72.1927 
-0.4703 263.974 9.38496 7468.17 32 251.425 85.5383 
-0.4695 220.307 4.89531 7365.77 20 289.048 197.895 
-0.4687 349.74 8.15992 7524.08 21 402.466 98.2313 
-0.4679 199.354 3.76527 7485.16 17 224.268 83.7397 
-0.4671 309.195 4.46578 7405.08 13 361.227 91.6271 
-0.4663 344.509 6.1241 7377.09 16 219.907 0 
-0.4655 319.756 5.68408 7441.26 16 532.438 0 
-0.4647 236.779 4.20905 7329.17 16 288.341 0 
-0.4639 287.041 7.65378 7438.61 24 228.694 0 
-0.4631 280.7 6.86099 7374.23 22 345.941 76.8802 
-0.4623 275.942 4.90522 7408.54 16 297.874 0 
-0.4615 299.852 6.99596 7379.09 21 399.501 175.848 
-0.4607 255.908 5.40205 7361.49 19 355.421 183.131 
-0.4599 365.239 5.68102 7338.93 14 272.71 89.7945 
-0.4591 293.236 4.88686 7390.36 15 414.554 0 
-0.4583 297.719 9.26161 7440.57 28 354.464 71.3383 
-0.4575 328.958 7.67505 7351.84 21 344.799 177.448 
-0.4567 299.627 7.65649 7485.23 23 281.788 75.6561 
-0.4559 274.875 4.58086 7396.08 15 375.34 0 
-0.4551 236.625 5.78369 7443.86 22 279.637 97.612 
-0.4543 207.539 5.76449 7463.49 25 162.43 167.359 
-0.4535 261.37 4.93658 7464.48 17 350.434 83.3767 
-0.4527 229.734 4.59429 7436.2 18 361.82 105.023 
-0.4519 310.345 5.86158 7413.72 17 266.506 0 
-0.4511 320.634 10.3307 7430.17 29 251.676 87.8093 
-0.4503 325.469 8.31686 7363.42 23 308.177 95.9469 
-0.4495 294.674 6.22037 7440.74 19 245.021 161.267 
-0.4487 340.988 7.95573 7429.46 21 384.872 117.326 
-0.4479 200.801 6.69281 7384.46 30 337.708 0 
-0.4471 333.542 10.7466 7429.25 29 278.214 141.077 
-0.4463 185.006 5.34417 7333.53 26 307.783 91.6271 
-0.4455 279.024 6.20001 7460.22 20 362.785 157.604 
-0.4447 339.439 7.91958 7368.35 21 356.061 78.0321 
-0.4439 174.317 3.0987 7322.13 16 212.169 109.19 
-0.4431 211.918 3.06078 7269.12 13 233.226 0 
-0.4423 230.156 5.36986 7367.81 21 257.021 98.2313 
-0.4415 303.631 6.74679 7445.19 20 331.67 158.091 
-0.4407 226.972 4.53907 7385.27 18 274.165 0 
-0.4399 211.522 5.17011 7353.1 22 280.982 190.72 
-0.4391 289.319 7.07165 7434.81 22 276.494 0 
-0.4383 264.624 5.58605 7330.1 19 304.125 161.267 
-0.4375 213.028 4.2602 7389.61 18 302.97 81.8019 
-0.4367 267.433 3.56548 7421.03 12 214.652 94.4034 
-0.4359 211.772 5.88207 7320.05 25 320.946 73.7654 
-0.4351 293.343 8.79957 7352.16 27 357.743 90.3722 
-0.4343 195.174 4.33683 7439.58 20 272.433 0 
-0.4335 294.939 3.60451 7376.78 11 174.432 0 
-0.4327 247.107 7.13805 7401.69 26 265.744 106.349 
-0.4319 298.246 7.62119 7437.43 23 292.757 171.758 
-0.4311 272.61 5.14887 7306.36 17 311.904 0 
-0.4303 268.109 5.06385 7436.19 17 414.489 83.7397 
-0.4295 253.937 3.94981 7484.3 14 247.756 0 
-0.4287 231.67 4.37562 7382.97 17 219.22 83.0049 
-0.4279 248.555 4.97069 7361.25 18 243.883 0 
-0.4271 260.055 6.6453 7409.54 23 295.498 95.4641 
-0.4263 209.05 4.87744 7465.9 21 410.513 155.659 
-0.4255 262.474 4.3742 7318.62 15 362.056 204.073 
-0.4247 364.845 6.08025 7421.73 15 218.168 0 
-0.4239 329.206 6.94932 7304.65 19 399.201 240.205 
-0.4231 223.792 4.22682 7406.61 17 352.307 106.568 
-0.4223 380.295 8.02778 7373.01 19 327.119 80.3645 
-0.4215 312.101 6.935 7463.37 20 370.646 78.8022 
-0.4207 377.107 10.4743 7301.88 25 320.451 73.6366 
-0.4199 363.545 8.88592 7445.3 22 297.644 76.8802 
-0.4191 283.166 4.08983 7573.29 13 388.854 0 
-0.4183 267.997 6.25274 7377.16 21 421.695 98.2313 
-0.4175 335.716 6.34078 7374.91 17 396.544 83.0049 
-0.4167 257.789 6.30098 7367.37 22 349.037 76.5158 
-0.4159 244.44 4.34525 7289.89 16 343.935 84.6795 
-0.4151 286.94 8.28868 7448.59 26 239.14 92.3511 
-0.4143 281.559 9.69733 7398.56 31 343.634 86.2821 
-0.4135 216.616 5.05395 7362.05 21 312.512 77.8293 
-0.4127 270.312 4.50483 7452.71 15 414.414 198.637 
-0.4119 266.395 5.03149 7393.1 17 206.09 107.51 
-0.4111 192.826 5.14159 7448.29 24 263.336 74.8155 
-0.4103 260.139 4.3353 7404.82 15 321.148 86.531 
-0.4095 289.977 5.15471 7406.24 16 271.194 85.5383 
-0.4087 312.909 9.38648 7321.68 27 243.569 178.156 
-0.4079 280.33 6.85193 7473.45 22 482.059 0 
-0.4071 189.409 4.84005 7441.73 23 283.472 0 
-0.4063 222.733 3.95937 7413.87 16 334.045 0 
-0.4055 326.841 5.81002 7475.95 16 480.119 196.935 
-0.4047 227.699 7.58934 7346.87 30 314.031 69.8648 
-0.4039 397.718 9.2793 7370.05 21 326.673 176.646 
-0.4031 245.772 8.46477 7405.39 31 298.21 138.686 
-0.4023 319.492 7.45419 7404.43 21 358.982 77.6162 
-0.4015 370.746 8.23812 7466.28 20 340.45 197.895 
-0.4007 465.739 6.72678 7308.57 13 188.11 0 
-0.3999 330.651 9.18398 7358.24 25 284.408 92.1796 
-0.3991 349.628 7.76887 7421.08 20 282.856 79.0455 
-0.3983 224.62 5.73982 7394.21 23 338.695 111.882 
-0.3975 252.563 4.20902 7421.17 15 394.402 86.531 
-0.3967 342.298 6.08479 7335.62 16 346.656 0 
-0.3959 310.093 6.89038 7410.98 20 221.794 179.752 
-0.3951 252.025 5.32008 7410.63 19 552.952 80.0856 
-0.3943 308.974 5.14914 7357.12 15 344.118 0 
-0.3935 287.016 7.97201 7289.45 25 453.583 92.5717 
-0.3927 343.457 8.01333 7486.88 21 266.825 0 
-0.3919 203.841 4.7559 7407.34 21 334.621 198.831 
-0.3911 274.178 6.09234 7299.24 20 316.792 79.0455 
-0.3903 252.46 5.89024 7384.64 21 413.347 0 
-0.3895 381.308 9.32008 7385.16 22 459.682 76.5158 
-0.3887 214.072 5.94596 7379.55 25 258.646 211.568 
-0.3879 200.398 4.45291 7359.77 20 388.649 197.895 
-0.3871 254.57 7.91929 7318 28 313.501 161.692 
-0.3863 303.384 6.06718 7391.93 18 389.441 104.194 
-0.3855 266.876 4.15106 7361.97 14 274.71 226.905 
-0.3847 235.912 5.76627 7308.48 22 455.342 174.492 
-0.3839 230.36 5.37462 7388.6 21 362.457 0 
-0.3831 197.782 3.95532 7461.78 18 281.676 82.1134 
-0.3823 251.449 6.14602 7294.48 22 347.819 153.032 
-0.3815 226.494 4.5295 7351.89 18 475.022 124.63 
-0.3807 306.521 6.81101 7315.25 20 308.012 340.506 
-0.3799 265.075 6.47908 7351.86 22 409.809 153.032 
-0.3791 275.878 7.96915 7397.71 26 305.951 73.1891 
-0.3783 334.316 7.05719 7412.48 19 422.148 80.6333 
-0.3775 305.72 7.47254 7443.12 22 257.179 77.0444 
-0.3767 283.817 8.19848 7389.46 26 420.596 73.0127 
-0.3759 192.634 3.63834 7395 17 256.527 0 
-0.3751 261.741 3.19879 7298.82 11 263.499 0 
-0.3743 266.341 5.91819 7331.18 20 403.694 78.8022 
-0.3735 254.721 5.094 7406.16 18 304.066 81.8019 
-0.3727 285.886 6.67011 7452.68 21 229.26 0 
-0.3719 268.807 6.27163 7304.79 21 355.14 115.375 
-0.3711 243.649 5.95538 7434.79 22 318.412 173.779 
-0.3703 360.282 7.20505 7371.44 18 252.357 123.292 
-0.3695 260.426 6.0761 7411.64 21 376.095 77.8293 
-0.3687 248.698 5.80248 7487.9 21 315.885 208.533 
-0.3679 143.65 2.71317 7421.03 17 193.693 83.0049 
-0.3671 310.796 5.5248 7360.74 16 371.876 84.6795 
-0.3663 241.787 8.86478 7395.53 33 450.685 165.773 
-0.3655 197.484 5.0464 7445.09 23 329.327 75.6561 
-0.3647 373.623 6.64163 7450.55 16 442.131 0 
-0.3639 370.367 8.22969 7421.63 20 321.835 257.606 
-0.3631 347.486 7.72126 7449.54 20 282.369 337.792 
-0.3623 265.506 7.07957 7437.7 24 334.16 243.278 
-0.3615 182.479 3.24381 7382.76 16 419.034 193.869 
-0.3607 411.296 6.3974 7358.5 14 335.731 116.824 
-0.3599 303.155 6.3994 7401.28 19 371.522 160.729 
-0.3591 269.291 7.18049 7405.33 24 343.287 168.646 
-0.3583 210.964 4.92208 7472.36 21 251.606 77.8293 
-0.3575 235.166 3.65783 7347.5 14 243.892 230.749 
-0.3567 184.192 4.70675 7413.88 23 291.84 151.859 
-0.3559 237.733 4.22602 7410.33 16 370.571 0 
-0.3551 238.725 5.56979 7507.06 21 225.748 77.8293 
-0.3543 225.471 5.76154 7401.97 23 257.065 75.4912 
-0.3535 293.943 7.83782 7406.95 24 338.955 170.338 
-0.3527 258.55 6.03232 7338.02 21 311.282 77.8293 
-0.3519 278.198 6.49074 7351.95 21 381.031 78.0321 
-0.3511 388.423 10.3571 7400.46 24 280.236 0 
-0.3503 271.023 7.82891 7363.74 26 277.685 0 
-0.3495 264.886 4.70869 7395.7 16 375.7 0 
-0.3487 330.781 8.8201 7375.93 24 359.314 74.5338 
-0.3479 363.116 10.8926 7299.7 27 417.129 221.357 
-0.3471 183.008 3.65985 7453.54 18 422.264 0 
-0.3463 219.398 6.82514 7357.55 28 304.595 160.232 
-0.3455 284.98 7.28222 7388.2 23 419.904 0 
-0.3447 209.44 4.88653 7456.7 21 299.624 198.831 
-0.3439 252.634 7.01704 7440.24 25 353.284 93.366 
-0.3431 303.08 6.73455 7545.44 20 446.982 216.208 
-0.3423 153.188 2.72312 7423.22 16 436.356 195.381 
-0.3415 242.444 6.19527 7368.28 23 318.735 150.982 
-0.3407 353.801 7.46851 7312.67 19 374.993 0 
-0.3399 256.176 7.96927 7423.78 28 314.262 177.787 
-0.3391 333.261 8.88623 7356.32 24 256.41 74.8155 
-0.3383 287.194 5.42432 7454.57 17 467.527 0 
-0.3375 293.443 3.91224 7424.33 12 229.347 0 
-0.3367 185.7 3.92 7350.77 19 310.465 0 
-0.3359 228.084 5.32152 7320.45 21 364.422 175.848 
-0.3351 324.885 8.66289 7375.23 24 215.41 149.068 
-0.3343 316.948 4.92989 7457.13 14 348.665 118.36 
-0.3335 266.286 5.32528 7361.56 18 397.469 81.4807 
-0.3327 285.441 7.61113 7395.44 24 359.402 74.8155 
-0.3319 294.131 4.24821 7406.41 13 214.888 120.776 
-0.3311 224.366 3.73912 7237.15 15 228.751 86.531 
-0.3303 287.954 4.79884 7462.66 15 394.324 0 
-0.3295 233.373 3.37066 7328.16 13 264.169 0 
-0.3287 207.228 3.91398 7364.25 17 185.579 83.3767 
-0.3279 242.304 4.84568 7461.86 18 309.502 0 
-0.3271 337.677 9.00398 7390.14 24 372.242 93.967 
-0.3263 237.882 5.81441 7375.97 22 327.598 0 
-0.3255 253.539 6.47878 7439.69 23 425.386 75.6561 
-0.3247 251.079 5.85802 7440.58 21 349.574 0 
-0.3239 313.727 9.06247 7367.03 26 408.939 72.7933 
-0.3231 246.739 6.0309 7472.29 22 247.508 76.7031 
-0.3223 283.873 5.99237 7341.89 19 335.283 80.3645 
-0.3215 282.431 7.21708 7369.08 23 422.677 75.6561 
-0.3207 297.445 6.60934 7450.09 20 188.369 100.707 
-0.3199 294.476 8.50638 7414.64 26 239.789 72.7933 
-0.3191 285.9 5.39989 7361.69 17 321.368 0 
-0.3183 240.815 6.42119 7424.4 24 260.572 0 
-0.3175 246.797 6.5807 7327.98 24 230.15 168.07 
-0.3167 307.997 5.47505 7438.75 16 249.935 85.1125 
-0.3159 276.169 7.05706 7320.63 23 338.374 75.4912 
-0.3151 335.631 8.20362 7429.08 22 352.389 175.202 
-0.3143 162.97 3.25913 7352.07 18 349.726 187.995 
-0.3135 267.169 5.04611 7370.77 17 362.329 144.682 
-0.3127 257.624 6.58316 7398.9 23 316.267 112.692 
-0.3119 246.62 4.65798 7439.59 17 302.513 0 
-0.3111 306.903 4.43268 7403.73 13 185.922 212.403 
-0.3103 305.36 4.41038 7407.03 13 358.882 0 
-0.3095 324.288 5.76463 7442.1 16 398.835 129.977 
-0.3087 270.485 6.01027 7373.56 20 316.78 158.557 
-0.3079 242.763 6.20342 7414.78 23 227.902 0 
-0.3071 299.034 3.98678 7374.92 12 507.33 94.4034 
-0.3063 254.793 5.3785 7420.83 19 412.644 80.6333 
-0.3055 282.844 5.02792 7428.83 16 167.664 193.869 
-0.3047 289.508 6.43297 7354.38 20 299.712 102.065 
-0.3039 287.845 8.31483 7379.07 26 305.239 164.174 
-0.3031 296.914 9.56642 7390.39 29 366.731 314.323 
-0.3023 308.305 5.48052 7368.7 16 309.465 169.359 
-0.3015 276.189 7.36444 7401.84 24 248.312 184.583 
-0.3007 306.747 7.15682 7488.85 21 329.893 0 
-0.2999 294.673 8.51207 7375.72 26 237.388 0 
-0.2991 276.511 7.06579 7355.87 23 240.319 75.8112 
-0.2983 265.893 4.72659 7369.05 16 394.931 85.5383 
-0.2975 202.87 6.0856 7410.61 27 256.234 72.1001 
-0.2967 190.553 4.02244 7463.93 19 390.806 81.3315 
-0.2959 261.782 7.56195 7373.4 26 256.456 91.6271 
-0.2951 239.53 4.25796 7291 16 500.813 84.6795 
-0.2943 264.58 6.46696 7407.61 22 320.431 76.8802 
-0.2935 343.292 4.57684 7452.89 12 331.737 0 
-0.2927 198.344 5.28874 7482.43 24 384.148 168.646 
-0.2919 268.676 7.76111 7358.07 26 381.37 164.64 
-0.2911 219.747 4.39457 7415.83 18 279.288 105.023 
-0.2903 274.485 7.01404 7420.34 23 302.576 171.12 
-0.2895 332.973 8.13866 7349.2 22 387.779 76.8802 
-0.2887 274.531 5.49017 7300.25 18 415.611 81.4807 
-0.2879 293.327 6.19194 7399.39 19 432.055 203.483 
-0.2871 237.697 6.07398 7343.01 23 325.398 171.12 
-0.2863 268.613 6.86399 7333.46 23 244.041 227.385 
-0.2855 256.191 6.83119 7379.7 24 359.695 168.646 
-0.2847 208.134 3.69986 7432.54 16 328.633 84.6795 
-0.2839 259.132 6.90961 7438.59 24 368.05 74.6794 
-0.2831 240.253 5.07158 7466.67 19 356.138 102.766 
-0.2823 241.977 4.5703 7343.72 17 396.476 0 
-0.2815 231.981 4.38149 7470.84 17 344.208 107.51 
-0.2807 287.562 4.47282 7408.23 14 319.09 0 
-0.2799 277.733 6.78846 7427.96 22 353.052 76.7031 
-0.2791 237.058 5.26752 7429.73 20 341.648 79.0455 
-0.2783 322.216 7.15976 7390.86 20 288.365 201.413 
-0.2775 339.656 6.79255 7408.3 18 471.069 0 
-0.2767 341.972 9.11849 7455.81 24 264.066 149.831 
-0.2759 234.96 6.52613 7395.14 25 352.838 0 
-0.2751 196.235 3.48834 7288.28 16 270.785 195.381 
-0.2743 239.415 6.64985 7432.3 25 335.639 93.366 
-0.2735 265.306 5.01091 7341.2 17 503.791 83.3767 
-0.2727 244.446 7.06118 7322.34 26 461.951 146.025 
-0.2719 241.544 5.09883 7464.21 19 371.014 160.729 
-0.2711 354.959 7.09859 7444.6 18 398.545 211.762 
-0.2703 231.166 5.1366 7419.84 20 431.685 121.119 
-0.2695 258.804 4.0255 7425.82 14 420.752 88.5933 
-0.2687 266.491 5.0333 7404.69 17 383.806 0 
-0.2679 254.572 7.91935 7382.69 28 350.832 71.4918 
-0.2671 245.562 3.27388 7510.05 12 366.077 125.325 
-0.2663 311.133 4.49377 7402.31 13 237.689 183.254 
-0.2655 351.649 6.64171 7356.86 17 259.758 166.753 
-0.2647 309.538 7.90976 7384.01 23 372.361 75.8112 
-0.2639 261.064 9.28149 7372.59 32 229.959 137.342 
-0.2631 369.253 10.2562 7400.85 25 293.034 0 
-0.2623 340.302 13.6109 7366.83 36 381.74 199.282 
-0.2615 264.878 4.11998 7447.66 14 198.107 89.1941 
-0.2607 252.683 7.01838 7434.29 25 340.881 0 
-0.2599 332.658 8.50056 7319.57 23 267.942 171.758 
-0.2591 261.631 7.26692 7484.61 25 261.738 239.405 
-0.2583 299.704 7.65845 7401.87 23 456.302 151.312 
-0.2575 240.899 3.747 7335.39 14 379.786 248.103 
-0.2567 243.683 4.87326 7452.33 18 277.078 105.023 
-0.2559 255.194 7.08813 7459.9 25 305.352 73.885 
-0.2551 252.082 4.76115 7325.48 17 283.34 0 
-0.2543 192.286 3.63177 7442.26 17 256.468 192.23 
-0.2535 267.641 4.46031 7473.89 15 299.882 156.711 
-0.2527 214.028 4.518 7445.62 19 392.013 0 
-0.2519 221.887 5.42346 7309.77 22 345.214 76.5158 
-0.2511 220.776 5.64158 7323.42 23 477.177 111.098 
-0.2503 345.136 6.90215 7462.23 18 298.787 81.8019 
-0.4993 387.689 8.61459 7515.05 20 322.154 157.604 
-0.4985 255.273 6.8067 7388.48 24 401.519 149.88 
-0.4977 376.718 8.37081 7412.11 20 188.241 79.0455 
-0.4969 298.929 8.30288 7423.92 25 324.702 73.6366 
-0.4961 359.477 7.98771 7447.47 20 320.726 201.413 
-0.4953 338.464 4.51248 7356.26 12 374.255 93.536 
-0.4945 284.01 7.25743 7331.16 23 260.899 171.12 
-0.4937 263.357 5.55929 7430.74 19 322.908 205.045 
-0.4929 372.563 7.45064 7451.27 18 232.585 81.4807 
-0.4921 267.105 7.41897 7476.59 25 307.209 0 
-0.4913 199.38 4.20879 7367.48 19 396.318 241.848 
-0.4905 211.101 5.39435 7409.83 23 300.312 113.528 
-0.4897 315.804 5.9647 7372.13 17 499.712 83.3767 
-0.4889 329.811 7.32852 7500.33 20 216.12 79.2785 
-0.4881 255.248 7.08963 7421.64 25 269.607 92.5717 
-0.4873 284.775 5.37864 7381.22 17 219.921 0 
-0.4865 285.215 4.11943 7386.69 13 500.687 0 
-0.4857 304.416 8.11707 7304.78 24 382.645 74.6794 
-0.4849 277.751 4.32022 7479.62 14 319.521 0 
-0.4841 377.838 9.65505 7430.86 23 319.009 150.982 
-0.4833 304.19 8.44901 7476 25 252.622 73.7654 
-0.4825 334.53 7.06172 7348.9 19 398.259 0 
-0.4817 172.93 3.65044 7387.35 19 301.179 80.0856 
-0.4809 349.296 6.59726 7375.17 17 150.707 166.753 
-0.4801 281.833 5.94932 7419.75 19 383.406 80.3645 
-0.4793 264.007 5.27969 7429.6 18 302.515 82.1134 
-0.4785 227.956 4.05221 7400.01 16 306.541 0 
-0.4777 352.646 5.87695 7502.26 15 346.017 0 
-0.4769 252.367 3.645 7419.91 13 145.087 0 
-0.4761 206.245 4.12456 7384.43 18 351.281 105.023 
-0.4753 344.63 9.18936 7392.83 24 333.048 93.967 
-0.4745 316.888 9.50584 7357.16 27 301.397 306.297 
-0.4737 323.294 5.74696 7334.8 16 388.326 84.6795 
-0.4729 233.237 6.21913 7410.54 24 395.748 188.807 
-0.4721 212.971 4.73229 7392.27 20 388.851 102.065 
-0.4713 267.405 7.72439 7418.02 26 339.717 146.378 
-0.4705 372.237 4.54919 7437.8 11 336.979 96.5489 
-0.4697 283.23 6.60815 7439.58 21 244.413 78.0321 
-0.4689 312.909 7.3006 7365.34 21 273.944 77.8293 
-0.4681 218.623 5.10077 7396.33 21 292.673 215.148 
-0.4673 337.446 9.37271 7328.9 25 342.983 183.416 
-0.4665 295.825 5.91601 7350.75 18 254.663 81.4807 
-0.4657 328.893 7.30811 7416.85 20 279.832 78.8022 
-0.4649 326.723 9.80087 7293.29 27 244.79 144.691 
-0.4641 302.78 8.40986 7368.1 25 341.712 0 
-0.4633 297.97 4.6347 7360.52 14 239.401 88.5933 
-0.4625 306.56 7.83367 7451.11 23 384.531 0 
-0.4617 182.214 4.85863 7311.38 24 354.5 74.8155 
-0.4609 189.088 5.67216 7367.31 27 449.017 143.998 
-0.4601 172.407 3.63941 7483.24 19 188.836 102.766 
-0.4593 342.622 7.99385 7345.68 21 349.469 155.659 
-0.4585 248.433 2.48412 7428.75 9 359.234 0 
-0.4577 311.576 6.23099 7474.61 18 471.521 0 
-0.4569 257.053 6.85417 7401.91 24 346.816 74.6794 
-0.4561 275.18 4.58595 7527.16 15 336.565 228.333 
-0.4553 318.681 5.3109 7399.69 15 233.022 0 
-0.4545 295.625 5.912 7376.26 18 439.265 185.674 
-0.4537 216.396 5.77007 7395.14 24 358.483 93.536 
-0.4529 206.379 4.58581 7352.09 20 366.453 79.4976 
-0.4521 276.781 7.38022 7354.98 24 220.822 93.967 
-0.4513 320.829 8.91116 7405.39 25 258.529 92.1796 
-0.4505 232.93 5.17579 7356.23 20 443.669 157.604 
-0.4497 270.798 5.11465 7423.65 17 546.052 146.774 
-0.4489 278.228 4.32763 7476.79 14 317.461 0 
-0.4481 271.748 6.03833 7351.19 20 308.124 0 
-0.4473 258.647 6.32195 7433.22 22 387.209 76.8802 
-0.4465 325.064 9.0288 7425.22 25 327.769 166.852 
-0.4457 275.993 6.43929 7430.21 21 408.125 78.0321 
-0.4449 315.69 5.26107 7326.93 15 402.917 135.885 
-0.4441 216.267 3.84442 7406.68 16 307.388 169.359 
-0.4433 318.095 4.24091 7461.08 12 358.128 93.536 
-0.4425 256.818 4.56527 7396.45 16 262.404 170.225 
-0.4417 241.662 6.98077 7407.75 26 271.47 178.544 
-0.4409 309.071 6.86768 7306.15 20 337.949 79.8748 
-0.4401 225.622 4.26139 7483.74 17 411.25 107.51 
-0.4393 284.614 9.17012 7344.86 29 217.282 175.619 
-0.4385 265.291 6.1896 7491.85 21 384.114 192.991 
-0.4377 292.378 7.14643 7410.38 22 317.851 230.06 
-0.4369 367.253 6.12037 7451.55 15 213.926 0 
-0.4361 230.887 5.13038 7417.74 20 225.668 178.855 
-0.4353 206.882 3.67759 7401.04 16 294.819 193.869 
-0.4345 213.68 4.51066 7392.8 19 255.203 80.0856 
-0.4337 276.479 3.68608 7399.08 12 328.404 95.2879 
-0.4329 315.63 8.06542 7430.59 23 242.351 302.576 
-0.4321 253.391 5.34893 7388.63 19 348.162 183.131 
-0.4313 227.708 4.55377 7431.6 18 312.798 164.227 
-0.4305 256.846 5.99257 7349.73 21 213.3 98.8171 
-0.4297 329.991 6.9659 7399.31 19 327.862 80.0856 
-0.4289 238.542 7.42068 7431.98 28 312.128 142.677 
-0.4281 323.219 8.97757 7410.78 25 375.445 74.0882 
-0.4273 242.579 6.19871 7389.16 23 376.979 150.982 
-0.4265 238.391 7.15115 7314.34 27 395.415 162.977 
-0.4257 260.234 8.09548 7454.03 28 316.074 71.4918 
-0.4249 356 7.91046 7409.3 20 361.884 178.855 
-0.4241 254.258 3.67232 7385.83 13 405.624 91.6271 
-0.4233 198.307 3.30484 7477.85 15 288.536 87.039 
-0.4225 192.353 5.77011 7347.06 27 353.281 144.2 
-0.4217 296.757 5.27524 7441.84 16 376.033 85.1125 
-0.4209 276.082 4.29425 7435.34 14 233.43 88.5933 
-0.4201 223.061 6.44344 7389.48 26 414.876 145.815 
-0.4193 295.34 7.21882 7459.83 22 223.123 0 
-0.4185 275.023 6.72222 7317.1 22 318.222 174.492 
-0.4177 296.002 7.23499 7394.57 22 246.731 194.151 
-0.4169 261.682 4.07027 7391.77 14 355.36 89.1941 
-0.4161 271.558 7.24094 7323.61 24 301.85 0 
-0.4153 296.169 6.25193 7470.29 19 300.55 160.171 
-0.4145 268.127 5.95788 7364.71 20 256.196 100.707 
-0.4137 282.238 5.95786 7365.87 19 324.466 102.032 
-0.4129 273.845 7.30194 7398.78 24 531.304 0 
-0.4121 288.191 7.04407 7397.97 22 279.749 0 
-0.4113 268.772 6.56943 7426.47 22 405.291 96.5489 
-0.4105 255.255 5.95546 7342.73 21 297.128 77.8293 
-0.4097 229.889 4.59741 7305.85 18 340.227 105.023 
-0.4089 313.946 5.92959 7353.37 17 260.838 168.177 
-0.4081 426.873 8.06249 7488.85 17 293.132 83.3767 
-0.4073 263.055 5.55291 7416.11 19 257.323 239.189 
-0.4065 409.02 8.63415 7358.95 19 349.06 80.8879 
-0.4057 288.449 8.97321 7355.74 28 345.716 0 
-0.4049 205.096 3.64584 7464.59 16 307.048 0 
-0.4041 223.744 5.22025 7312.21 21 365.358 99.4156 
-0.4033 240.426 5.07524 7338.18 19 312.943 80.0856 
-0.4025 374.314 8.31739 7483.65 20 391.797 79.4976 
-0.4017 308.183 8.21752 7409.99 24 169.328 169.784 
-0.4009 279.03 7.13018 7313.98 23 331.504 262.032 
-0.4001 216.723 3.61174 7368.33 15 315.522 0 
-0.3993 212.026 3.53347 7445.8 15 355.203 87.5423 
-0.3985 325.935 7.2424 7461.28 20 528.492 0 
-0.3977 320.903 6.06099 7415.39 17 361.434 167.479 
-0.3969 224.317 4.73519 7322.73 19 295.136 0 
-0.3961 206.022 5.03567 7387.94 22 241.146 76.5158 
-0.3953 345.805 12.2943 7411.25 32 206.416 154.087 
-0.3945 321.274 6.42495 7346.47 18 261.44 271.536 
-0.3937 335.912 7.8373 7324.02 21 319.406 0 
-0.3929 305.894 5.77751 7389.56 17 384.504 83.3767 
-0.3921 342.226 9.50547 7410.95 25 383.39 184.219 
-0.3913 395.534 7.91001 7408.53 18 403.061 186.825 
-0.3905 343.747 9.16583 7394.84 24 248.693 149.359 
-0.3897 262.017 3.78438 7482.46 13 218.641 90.9094 
-0.3889 253.564 4.50744 7446.43 16 310.347 84.6795 
-0.3881 267.969 8.03841 7455.56 27 357.308 177.499 
-0.3873 186.68 5.18513 7340.22 25 393.956 166.337 
-0.3865 296.467 4.9407 7365.74 15 347.582 0 
-0.3857 271.57 6.93955 7381.14 23 263.721 208.638 
-0.3849 318.802 7.0839 7505.11 20 332.067 158.557 
-0.3841 270.462 6.61073 7446.36 22 217.253 96.5489 
-0.3833 262.931 4.67393 7450.85 16 311.288 214.656 
-0.3825 292.144 7.1407 7389.34 22 427.238 190.72 
-0.3817 159.565 3.5456 7366.44 20 284.092 79.2785 
-0.3809 276.753 8.30191 7413.41 27 352.241 72.1927 
-0.3801 493.749 8.77702 7447.88 16 486.504 84.6795 
-0.3793 267.39 5.64442 7423.52 19 250.797 0 
-0.3785 244.824 4.89607 7410.91 18 382.711 142.585 
-0.3777 311.419 5.88188 7411.19 17 279.42 0 
-0.3769 218.87 3.64753 7468.41 15 540.653 113.351 
-0.3761 268.828 5.37611 7460.05 18 319.357 81.8019 
-0.3753 219.323 4.3861 7401.81 18 398.08 105.023 
-0.3745 188.065 3.13415 7362.46 15 299.411 0 
-0.3737 298.154 9.60639 7415.29 29 385.161 70.5384 
-0.3729 249.854 6.66223 7439.98 24 350.152 169.784 
-0.3721 258.991 4.6039 7281.14 16 335.726 110.269 
-0.3713 321.943 5.72295 7411.62 16 284.362 0 
-0.3705 257.862 7.16222 7406.91 25 369.544 147.531 
-0.3697 339.672 9.43454 7385.72 25 463.268 182.619 
-0.3689 266.047 7.094 7392.58 24 429.653 169.784 
-0.3681 265.923 6.4998 7355.03 22 268.252 76.7031 
-0.3673 267.48 4.7548 7440.29 16 329.248 84.6795 
-0.3665 288.066 4.48065 7447.38 14 231.943 88.5933 
-0.3657 298.746 7.63399 7429.34 23 470.385 0 
-0.3649 222.433 4.94254 7354.6 20 441.794 79.0455 
-0.3641 242.057 5.3786 7423.29 20 343.833 0 
-0.3633 241.051 6.15967 7388.65 23 309.081 170.48 
-0.3625 198.572 5.51544 7427.83 25 319.834 92.5717 
-0.3617 266.188 6.802 7425.26 23 341.344 0 
-0.3609 178.132 3.16652 7372.59 16 430.509 193.869 
-0.3601 288.399 6.72874 7368.14 21 248.577 116.331 
-0.3593 248.634 6.07721 7419.86 22 288.422 96.5489 
-0.3585 311.103 6.22155 7426.8 18 262.13 82.1134 
-0.3577 285.703 6.34843 7430.83 20 310.346 79.0455 
-0.3569 261.247 6.38552 7345.37 22 256.154 97.0757 
-0.3561 205.784 4.80122 7379.41 21 376.333 234.046 
-0.3553 321.607 7.86084 7408.5 22 264.64 0 
-0.3545 324.176 6.12282 7420.77 17 295.45 83.0049 
-0.3537 249.305 3.60077 7410.75 13 509.387 90.9094 
-0.3529 278.561 6.49922 7372.03 21 259.753 78.2215 
-0.3521 310.889 8.63507 7371.42 25 274.577 182.619 
-0.3513 252.717 5.61547 7428.45 20 337.948 158.091 
-0.3505 358.625 8.76566 7357.62 22 309.794 76.8802 
-0.3497 293.337 7.16986 7443.73 22 248.906 191.793 
-0.3489 237.943 5.8159 7345.36 22 345.119 0 
-0.3481 233.292 5.70223 7408.12 22 223.716 96.5489 
-0.3473 273.934 7.91298 7328.36 26 203.833 0 
-0.3465 219.764 6.59237 7303.82 27 322.393 0 
-0.3457 291.2 8.73527 7413.62 27 275.387 72.1001 
-0.3449 240.475 4.27475 7351.61 16 388.079 110.269 
-0.3441 258.583 5.7458 7347.21 20 421.476 100.707 
-0.3433 326.057 9.05639 7393.31 25 341.449 92.5717 
-0.3425 246.831 6.5816 7350.23 24 239.66 187.072 
-0.3417 261.187 6.67422 7282.33 23 275.506 75.6561 
-0.3409 216.103 4.80188 7424.43 20 340.155 199.238 
-0.3401 236.739 5.78646 7380.24 22 387.579 153.76 
-0.3393 424.716 6.13427 7392.04 13 215.713 90.9094 
-0.3385 257.821 6.30176 7399.13 22 277.204 96.5489 
-0.3377 263.42 8.48727 7329.44 29 286.234 175.067 
-0.3369 266.549 8.88422 7364.96 30 364.529 139.73 
-0.3361 306.529 7.15174 7387.59 21 426.705 156.443 
-0.3353 285.573 9.5183 7367.97 30 259.804 69.9355 
-0.3345 312.918 6.95314 7412.6 20 336.897 101.378 
-0.3337 202.394 3.82269 7391.27 17 278.609 0 
-0.3329 266.463 8.28928 7383.44 28 369.706 142.984 
-0.3321 237.82 6.86977 7419.68 26 422.867 106.349 
-0.3313 384.427 10.6776 7425.17 25 246.442 92.5717 
-0.3305 258.184 9.17912 7395.69 32 241.441 121.271 
-0.3297 258.501 6.31839 7371.91 22 340.017 222.312 
-0.3289 233.818 4.93575 7287.75 19 293.164 160.729 
-0.3281 280.513 6.54477 7395.63 21 322.229 156.064 
-0.3273 234.11 2.8611 7332.87 11 288.318 0 
-0.3265 234.401 7.81271 7422.26 30 405.49 100.052 
-0.3257 247.034 6.03811 7433.86 22 355.403 97.612 
-0.3249 187.791 3.33823 7317.5 16 378.744 84.6795 
-0.3241 249.099 4.1513 7395.73 15 405.288 175.085 
-0.3233 232.994 4.91835 7465.98 19 355.873 0 
-0.3225 267.981 5.06143 7452.75 17 278.954 84.4158 
-0.3217 228.186 4.81686 7316.12 19 325.026 0 
-0.3209 330.349 9.17559 7367.44 25 279.235 73.9933 
-0.3201 188.072 5.43273 7367.4 26 310.199 107.59 
-0.3193 247.422 5.7727 7375.87 21 296.246 78.0321 
-0.3185 252.224 5.88473 7420.8 21 257.461 177.448 
-0.3177 197.621 3.51297 7436.78 16 360.977 0 
-0.3169 268.41 4.17492 7381.97 14 348.288 179.589 
-0.3161 228.883 4.0687 7411.5 16 221.398 84.6795 
-0.3153 405.064 7.20054 7419.07 16 250.171 85.1125 
-0.3145 252.356 5.60743 7331.42 20 276.779 79.0455 
-0.3137 226.335 4.77778 7438.95 19 302.507 0 
-0.3129 397.815 11.4915 7364.7 26 333.073 0 
-0.3121 209.214 4.88126 7383.41 21 212.588 0 
-0.3113 281.177 5.31068 7262.94 17 418.938 83.7397 
-0.3105 315.41 4.20512 7406.25 12 323.467 0 
-0.3097 282.694 8.16603 7331.07 26 373.392 164.174 
-0.3089 215.215 4.54305 7361.05 19 356.188 80.3645 
-0.3081 300.639 5.34425 7352.87 16 420.416 253.984 
-0.3073 193.108 3.86184 7366.83 18 372.366 162.961 
-0.3065 238.023 4.76007 7342.86 18 484.456 81.4807 
-0.3057 195.579 5.4323 7423.12 25 313.281 147.77 
-0.3049 267.855 5.35666 7412.16 18 307.984 0 
-0.3041 279.638 7.45639 7434.51 24 316.535 168.07 
-0.3033 333.55 9.6351 7332.69 26 314.398 145.815 
-0.3025 292.32 5.52114 7353.73 17 333.435 0 
-0.3017 254.208 5.08374 7282.13 18 300.507 164.227 
-0.3009 254.614 4.5261 7410.24 16 280.07 85.1125 
-0.3001 306.125 7.82254 7391.62 23 349.133 0 
-0.2993 193.285 3.43589 7430.13 16 331.012 85.5383 
-0.2985 203.97 4.53228 7408.13 20 423.307 79.0455 
-0.2977 185.38 3.91325 7337.05 19 358.843 80.3645 
-0.2969 282.851 5.65655 7380.42 18 214.593 82.1134 
-0.2961 246.08 6.56159 7391.38 24 341.295 149.359 
-0.2953 250.56 5.01077 7371.64 18 327.507 123.292 
-0.2945 241.758 4.83476 7452.87 18 313.259 206.432 
-0.2937 179.327 3.58624 7401.97 18 259.313 123.292 
-0.2929 280.265 5.91621 7456.92 19 222.499 102.032 
-0.2921 372.985 9.53104 7266.2 23 309.096 150.982 
-0.2913 289.727 5.47217 7499.75 17 343.062 166.01 
-0.2905 231.873 5.66753 7407.51 22 352.756 153.032 
-0.2897 243.847 3.79286 7438.26 14 222.091 88.5933 
-0.2889 252.343 6.16787 7447.34 22 330.446 173.779 
-0.2881 285.646 4.76037 7415.99 15 320.673 0 
-0.2873 203.747 6.1119 7434.43 27 374.912 72.1001 
-0.2865 333.057 11.841 7402.01 32 419.978 154.087 
-0.2857 294.859 8.18984 7360.56 25 321.023 92.5717 
-0.2849 209.195 4.6484 7483.92 20 270.807 179.752 
-0.2841 282.074 4.07407 7257.25 13 294.272 90.9094 
-0.2833 234.75 7.56354 7317.14 29 373.894 70.7524 
-0.2825 268.671 5.96996 7380.96 20 347.642 79.2785 
-0.2817 347.549 7.72267 7396.88 20 356 158.557 
-0.2809 299.839 7.66192 7361.64 23 294.59 75.9539 
-0.2801 300.311 4.67112 7406.81 14 459.626 179.589 
-0.2793 207.917 4.85099 7431.94 21 363.576 77.6162 
-0.2785 292.651 7.47823 7415.69 23 284.429 171.12 
-0.2777 225.122 6.00276 7380.04 24 268.603 94.4034 
-0.2769 291.137 3.88151 7356.97 12 319.413 152.283 
-0.2761 302.209 5.0364 7429.17 15 269.038 222.924 
-0.2753 293.977 8.49195 7399.24 26 365.147 309.942 