ITEM: TIMESTEP
16000
ITEM: NUMBER OF CELLS
5000
ITEM: BOX BOUNDS or pp pp
-0.5 0.5
0 0.0002
-0.5 0.5
ITEM: CELLS xc c_1[1] c_1[2] c_2[1] c_2[2] c_2[3] c_3[1] 
-0.4999 265.946 6.20489 7500.98 21 299.009 78.0321 
-0.4991 284.773 6.64415 7468.16 21 308.486 0 
-0.4983 293.896 5.87743 7385.68 18 263.808 185.674 
-0.4975 266.434 5.92027 7513.54 20 275.197 78.8022 
-0.4967 167.039 3.52609 7490.35 19 354.893 80.0856 
-0.4959 296.605 6.92021 7374.8 21 226.414 78.0321 
-0.4951 388.84 6.91214 7358.09 16 229.035 0 
-0.4943 263.359 5.26675 7422.99 18 312.028 81.8019 
-0.4935 223.595 5.21678 7382.02 21 230.571 156.443 
-0.4927 312.204 11.0997 7420.35 32 319.42 153.832 
-0.4919 302.708 6.72627 7355.3 20 274.6 158.557 
-0.4911 197.93 2.85876 7480.53 13 198.799 92.3511 
-0.4903 271.838 6.34235 7416.03 21 320.227 99.4156 
-0.4895 295.148 8.52579 7425.41 26 287.283 164.64 
-0.4887 329.391 9.51495 7411.13 26 326.777 182.534 
-0.4879 249.451 6.65148 7437.62 24 251.32 149.359 
-0.4871 360.829 8.01776 7359.98 20 456.552 100.052 
-0.4863 261.036 10.1506 7355.88 35 291.785 165.814 
-0.4855 267.784 5.95027 7397.43 20 268.361 179.752 
-0.4847 191.869 4.90292 7323.24 23 277.034 152.113 
-0.4839 329.89 7.33028 7402.45 20 356.442 79.0455 
-0.4831 341.052 10.6096 7387.91 28 359.044 88.5933 
-0.4823 253.832 7.61432 7498.54 27 287.103 130.24 
-0.4815 283.557 5.67068 7416.07 18 382.618 0 
-0.4807 276.477 7.06492 7367.39 23 247.016 76.0813 
-0.4799 256.629 4.56192 7364.55 16 239.351 193.869 
-0.4791 367.698 12.2556 7461.69 30 439.854 156.721 
-0.4783 263.772 3.80973 7460.97 13 226.247 143.32 
-0.4775 241.57 3.22066 7419.36 12 459.755 0 
-0.4767 273.346 6.98493 7391.74 23 213.266 170.48 
-0.4759 329.08 8.77474 7408.84 24 390.006 0 
-0.4751 249.653 5.82476 7388.94 21 243.018 156.443 
-0.4743 284.661 6.009 7292.86 19 310.286 160.171 
-0.4735 295.522 8.53659 7451.83 26 422.489 90.9094 
-0.4727 287.11 4.78477 7515.4 15 433.82 0 
-0.4719 250.962 6.69177 7358.5 24 252.233 109.904 
-0.4711 286.173 7.63065 7373.05 24 408.755 149.359 
-0.4703 239.026 3.18675 7404.73 12 195.508 125.325 
-0.4695 290.807 8.0773 7463.82 25 337.537 167.359 
-0.4687 293.816 7.83444 7426.64 24 287.703 205.042 
-0.4679 273.92 5.17362 7291.13 17 386.438 189.573 
-0.4671 231.618 4.8893 7394.83 19 447.324 80.0856 
-0.4663 334.752 9.29789 7422.5 25 352.322 147.77 
-0.4655 248.762 5.25121 7434.97 19 239.617 0 
-0.4647 351.06 6.63058 7276.78 17 319.725 166.01 
-0.4639 237.689 5.54562 7438.58 21 356.612 0 
-0.4631 232.059 6.18773 7379.28 24 208.727 149.359 
-0.4623 300.364 9.6776 7439.29 29 307.326 0 
-0.4615 291.28 5.17788 7356.13 16 296.272 0 
-0.4607 316.026 7.72444 7377.17 22 301.121 173.779 
-0.4599 335.749 7.46047 7386.31 20 211.438 239.043 
-0.4591 291.251 6.14811 7429.79 19 366.865 0 
-0.4583 181.431 2.82202 7301.78 14 400.294 89.1941 
-0.4575 352.742 6.66235 7438.55 17 365.866 0 
-0.4567 344.922 7.66429 7356.59 20 308.143 118.849 
-0.4559 191.935 4.26486 7426.26 20 337.336 79.2785 
-0.4551 308.295 5.82287 7526.06 17 387.492 108.49 
-0.4543 239.963 7.46489 7376.61 28 275.138 88.8933 
-0.4535 238.571 3.97585 7414.65 15 262.961 0 
-0.4527 244.912 8.97937 7348.55 33 304.954 180.922 
-0.4519 180.095 4.40196 7421.49 22 350.198 174.492 
-0.4511 227.066 4.79323 7385.07 19 269.132 161.267 
-0.4503 264.369 6.1681 7375.03 21 337.46 98.2313 
-0.4495 188.48 3.97868 7415.58 19 270.333 80.3645 
-0.4487 190.307 5.28587 7353 25 323.769 92.5717 
-0.4479 363.309 8.47649 7358.48 21 373.016 155.232 
-0.4471 294.19 8.82496 7367.24 27 277.04 89.7164 
-0.4463 255.34 5.10637 7395.02 18 355.809 81.4807 
-0.4455 286.695 7.00751 7424.24 22 360.564 191.793 
-0.4447 312.676 7.98995 7418.95 23 365.622 75.8112 
-0.4439 351.089 8.19139 7353.07 21 268.428 98.2313 
-0.4431 227.567 4.04529 7342.32 16 361.318 109.19 
-0.4423 284.667 5.37659 7403.69 17 398.734 83.3767 
-0.4415 290.796 6.78467 7426.42 21 328.158 98.2313 
-0.4407 310.017 9.9886 7372.48 29 282.756 0 
-0.4399 259.76 6.34916 7434.95 22 247.508 153.357 
-0.4391 358.395 7.56549 7422.09 19 347.843 102.032 
-0.4383 207.105 3.91166 7413.11 17 305.807 0 
-0.4375 259.066 5.75654 7422.01 20 279.96 79.0455 
-0.4367 472.654 5.7764 7319.41 11 318.757 0 
-0.4359 182.905 4.26742 7410.66 21 359.923 77.8293 
-0.4351 309.103 7.2118 7418.73 21 313.92 98.2313 
-0.4343 202.262 8.0898 7406.72 36 366.767 81.8019 
-0.4335 271.583 7.84508 7418.92 26 343.163 375.136 
-0.4327 257.927 6.59091 7454.02 23 281.593 201.131 
-0.4319 249.607 8.31953 7367.86 30 259.172 69.9355 
-0.4311 281.042 6.5571 7383.57 21 219.008 175.848 
-0.4303 198.1 4.84205 7342.74 22 177.976 114.017 
-0.4295 167.88 3.54383 7315.29 19 313.205 0 
-0.4287 365.061 6.08385 7367.51 15 221.122 87.039 
-0.4279 279.982 8.0877 7341.34 26 334.188 72.7933 
-0.4271 239.553 5.58909 7371.5 21 316.38 98.8171 
-0.4263 271.318 6.63167 7323.59 22 257.028 191.793 
-0.4255 189.008 5.45978 7403.7 26 417.716 182.534 
-0.4247 233.715 6.23187 7392.91 24 277.077 187.934 
-0.4239 285.959 6.0364 7420.28 19 265.783 0 
-0.4231 362.664 9.67025 7397.22 24 307.403 74.8155 
-0.4223 255.626 5.11209 7374.96 18 338.183 81.4807 
-0.4215 235.981 6.81665 7431.68 26 269.783 73.1891 
-0.4207 293.948 7.51137 7491.86 23 280.584 0 
-0.4199 318.442 6.01451 7430.09 17 244.191 190.887 
-0.4191 172.831 4.03238 7419.08 21 344.119 77.8293 
-0.4183 280.464 6.85522 7434.1 22 275.858 98.1572 
-0.4175 236.474 5.25454 7381.65 20 352.479 79.6983 
-0.4167 383.876 7.25038 7358.25 17 353.822 167.479 
-0.4159 245.19 3.54134 7480.12 13 508.847 261.157 
-0.4151 407.835 6.79668 7569.85 15 293.538 87.039 
-0.4143 264.961 5.88753 7406.85 20 402.577 78.8022 
-0.4135 174.212 1.74197 7470.73 9 377.77 0 
-0.4127 260.799 7.53356 7419.49 26 381.812 72.9075 
-0.4119 372.172 11.5777 7461.96 28 313.816 0 
-0.4111 355.539 5.53015 7379.05 14 258.823 88.5933 
-0.4103 271.686 5.43327 7436.91 18 300.723 164.174 
-0.4095 156.587 4.17529 7482.68 24 275.565 149.88 
-0.4087 242.041 6.18498 7425.67 23 275.604 171.12 
-0.4079 338.741 8.65598 7418.45 23 362.733 264.265 
-0.4071 283.937 6.9401 7385.82 22 298.418 154.385 
-0.4063 366.85 6.11365 7350.91 15 264.81 0 
-0.4055 306.053 6.12055 7372.51 18 281.296 162.961 
-0.4047 235.453 4.70867 7404.79 18 465.769 105.023 
-0.4039 450.848 8.0144 7486.64 16 440.37 85.5383 
-0.4031 267.904 6.25058 7431.75 21 374.858 0 
-0.4023 254.978 7.36541 7331.53 26 346.659 72.7933 
-0.4015 357.041 8.33026 7401.88 21 368.241 98.8171 
-0.4007 255.518 6.52935 7367.97 23 336.302 127.872 
-0.3999 163.775 2.00153 7344.14 11 269.523 0 
-0.3991 234.658 6.25702 7408.08 24 324.749 335.037 
-0.3983 207.691 4.84571 7507.61 21 283.752 98.8171 
-0.3975 253.026 5.34122 7376.57 19 333.031 183.131 
-0.3967 346.218 7.69308 7424.88 20 210.427 0 
-0.3959 301.467 7.36857 7361.86 22 228.047 76.7031 
-0.3951 337.744 7.88003 7410.18 21 379.595 0 
-0.3943 131.029 2.76594 7345.76 19 295.446 80.6333 
-0.3935 208.408 4.39936 7332.9 19 401.9 161.267 
-0.3927 327.646 6.55237 7321.71 18 359.092 206.432 
-0.3919 300.425 7.00934 7441.56 21 296.727 176.646 
-0.3911 232.135 5.67394 7408.19 22 255.778 113.153 
-0.3903 276.324 7.98202 7444.5 26 270.399 209.98 
-0.3895 245.326 4.63354 7466.19 17 329.94 83.3767 
-0.3887 349.278 7.76109 7348.1 20 182.908 101.378 
-0.3879 231.377 3.85596 7420.57 15 211.38 173.062 
-0.3871 289.426 6.43115 7313.02 20 229.006 78.8022 
-0.3863 290.093 5.80139 7417.55 18 345.117 82.1134 
-0.3855 224.84 4.99603 7471.76 20 299.37 157.604 
-0.3847 256.839 4.2803 7512.77 15 287.477 87.5423 
-0.3839 274.748 7.93651 7401.58 26 274.946 146.214 
-0.3831 210.587 5.61517 7363.13 24 342.906 74.5338 
-0.3823 256.887 4.85191 7320.04 17 329.044 166.01 
-0.3815 297.045 4.62031 7391.57 14 241.454 140.616 
-0.3807 313.358 5.9185 7343.34 17 286.024 166.753 
-0.3799 269.946 5.9983 7357.39 20 256.112 0 
-0.3791 239.625 6.12325 7405.71 23 297.751 0 
-0.3783 317.5 8.1132 7337.06 23 298.834 0 
-0.3775 361.786 11.2546 7356.32 28 309.23 193.778 
-0.3767 286.479 7.32051 7411.05 23 378.572 170.48 
-0.3759 388.785 12.5265 7443.26 29 323.296 159.749 
-0.3751 300.071 7.66783 7397.28 23 258 170.48 
-0.3743 196.048 3.92064 7410.42 18 318.054 126.038 
-0.3735 245.303 6.26834 7422.08 23 278.72 94.9884 
-0.3727 329.886 5.86415 7330.04 16 425.216 85.1125 
-0.3719 253.806 7.33157 7444.61 26 232.502 182.534 
-0.3711 172.989 2.49852 7430.77 13 453.211 0 
-0.3703 258.507 6.03132 7387.15 21 454.774 0 
-0.3695 217.84 4.35644 7508.38 18 253.067 82.4105 
-0.3687 306.132 6.80237 7449.84 20 245.186 157.553 
-0.3679 277.611 5.8602 7372.03 19 288.399 0 
-0.3671 282.678 7.53745 7404.36 24 209.182 74.6794 
-0.3663 201.461 4.02888 7436.71 18 279.085 162.961 
-0.3655 314.482 9.78305 7472.59 28 350.539 160.987 
-0.3647 269.964 7.79831 7309.98 26 460.978 164.174 
-0.3639 260.525 5.21006 7313.13 18 321.062 0 
-0.3631 251.877 5.87663 7369.23 21 339.221 100.647 
-0.3623 343.046 14.1018 7369.86 37 245.914 66.0066 
-0.3615 263.026 5.84453 7368.15 20 333.141 221.337 
-0.3607 330.43 9.17783 7460.36 25 381.87 108.064 
-0.3599 265.024 4.41669 7332.01 15 229.572 112.106 
-0.3591 221.336 4.91817 7399.63 20 411.165 197.895 
-0.3583 310.15 6.20249 7310.64 18 411.308 81.4807 
-0.3575 308.428 7.53871 7464.46 22 304.811 0 
-0.3567 316.204 5.26963 7310.4 15 366.923 87.5423 
-0.3559 276.399 3.68502 7386.4 12 240.572 216.828 
-0.3551 214.64 4.5309 7460.84 19 420.938 80.0856 
-0.3543 272.521 8.17495 7392.75 27 398.398 144.55 
-0.3535 319.975 12.4424 7443.86 35 345.132 174.213 
-0.3527 262.528 5.83347 7456.06 20 252.277 78.8022 
-0.3519 216.109 3.12132 7337.31 13 278.543 0 
-0.3511 346.714 6.1633 7464.93 16 250.165 129.977 
-0.3503 251.76 5.87391 7323.23 21 368.052 98.8171 
-0.3495 321.91 8.9412 7445 25 394.479 0 
-0.3487 186.635 3.73239 7340.9 18 368.764 82.1134 
-0.3479 244.061 5.69428 7367.87 21 228.28 155.182 
-0.3471 279.741 9.63471 7358.82 31 308.565 85.8159 
-0.3463 361.297 6.82393 7419.36 17 208.39 0 
-0.3455 247.825 6.05745 7409.61 22 335.312 114.017 
-0.3447 252.368 5.04694 7356.72 18 315.114 81.8019 
-0.3439 249.505 5.26689 7348.88 19 347.766 80.3645 
-0.3431 254.588 5.09134 7371.78 18 359.81 164.227 
-0.3423 273.441 3.34178 7410.15 11 229.786 96.5489 
-0.3415 316.987 6.33922 7359.89 18 544.908 0 
-0.3407 278.099 10.1961 7340.92 33 297.465 168.446 
-0.3399 366.984 5.70816 7387.55 14 434.721 0 
-0.3391 290.924 6.14122 7443.96 19 298.377 80.6333 
-0.3383 278.439 4.64027 7336.73 15 420.954 112.106 
-0.3375 282.502 5.96343 7405.18 19 319.812 80.6333 
-0.3367 241.166 5.09086 7364.14 19 311.105 80.3645 
-0.3359 203.735 3.62165 7342.04 16 497.024 0 
-0.3351 211.641 2.82164 7315.64 12 454.516 123.292 
-0.3343 198.593 4.63345 7380.75 21 334.257 77.8293 
-0.3335 218.51 4.36984 7537.65 18 414.296 123.292 
-0.3327 178.13 2.77068 7424.52 14 492.741 88.5933 
-0.3319 216.513 6.01374 7370.5 25 337.275 165.816 
-0.3311 313.838 6.97359 7417.12 20 320.965 121.119 
-0.3303 260.721 5.79332 7432.35 20 289.927 79.2785 
-0.3295 274.319 6.70501 7371.09 22 373.033 76.8802 
-0.3287 304.624 7.10731 7410.07 21 307.683 156.064 
-0.3279 271.906 6.04184 7438.08 20 305.597 158.557 
-0.3271 168.365 4.11525 7305.61 22 421.785 153.032 
-0.3263 367.494 4.49122 7477.79 11 261.389 0 
-0.3255 280.271 5.29356 7371.58 17 304.696 190.887 
-0.3247 298.826 7.96802 7443.76 24 407.551 93.536 
-0.3239 272.57 5.14811 7454.24 17 326.541 108.49 
-0.3231 277.899 6.48377 7351.12 21 331.496 77.8293 
-0.3223 213.971 5.94314 7535.75 25 364.045 147.273 
-0.3215 305.945 7.81794 7439.71 23 326.205 126.733 
-0.3207 235.723 5.49975 7376.44 21 300.214 78.2215 
-0.3199 187.614 2.29287 7381.37 11 470.191 97.612 
-0.3191 262.529 7.29185 7347.18 25 369.23 0 
-0.3183 303.684 7.42277 7418.38 22 371.962 97.612 
-0.3175 233.275 5.70179 7452.05 22 236.433 153.76 
-0.3167 311.394 7.26524 7438.97 21 420.561 77.8293 
-0.3159 256.347 5.12652 7288.06 18 340.973 163.604 
-0.3151 292.572 5.85095 7424.37 18 286.703 106.768 
-0.3143 387.49 5.1661 7470.77 12 399.539 95.2879 
-0.3135 235.572 5.49622 7434.57 21 340.768 0 
-0.3127 268.108 5.65959 7467.54 19 319.624 0 
-0.3119 263.863 6.74261 7445.28 23 305.215 75.6561 
-0.3111 190.984 4.24374 7404.59 20 402.551 100.707 
-0.3103 248.632 8.01081 7451.98 29 315.582 282.427 
-0.3095 216.115 4.56205 7499.48 19 372.397 102.766 
-0.3087 269.713 5.69347 7346.94 19 399.81 0 
-0.3079 303.076 7.74463 7400.63 23 326.516 75.8112 
-0.3071 295.144 9.83732 7390.89 30 342.151 0 
-0.3063 334.364 7.80117 7416.06 21 309.211 77.8293 
-0.3055 213.819 4.9887 7366.04 21 319.102 155.659 
-0.3047 279.032 4.65014 7396.13 15 354.143 112.106 
-0.3039 250.444 5.84319 7437.87 21 430.619 176.646 
-0.3031 288.494 8.65411 7402.97 27 298.628 323.384 
-0.3023 230.145 6.64808 7431.63 26 288.749 72.7933 
-0.3015 325.8 5.42954 7379.26 15 288.559 174.078 
-0.3007 239.291 6.38055 7403.11 24 251.101 169.784 
-0.2999 327.065 9.44774 7395.66 26 255.173 0 
-0.2991 237.908 6.34368 7394.71 24 411.642 74.5338 
-0.2983 230.307 5.88512 7379.3 23 539.3 171.758 
-0.2975 292.406 6.49737 7414.41 20 224.914 79.8748 
-0.2967 408.602 7.71739 7329.42 17 419.421 0 
-0.2959 308.425 6.16798 7416.2 18 225.452 81.4807 
-0.2951 259.466 6.34198 7353.44 22 283.278 114.017 
-0.2943 353.414 6.28239 7394.52 16 357.277 170.225 
-0.2935 257.035 5.99697 7332.72 21 325.35 175.848 
-0.2927 301.952 6.03854 7461.66 18 368.024 210.046 
-0.2919 280.616 4.9883 7371.46 16 317.531 0 
-0.2911 237.09 3.68775 7383.49 14 306.434 203.968 
-0.2903 334.299 7.05683 7329.73 19 245.121 0 
-0.2895 205.699 5.48486 7449.54 24 348.951 74.6794 
-0.2887 272.518 6.05544 7388.19 20 484.896 100.052 
-0.2879 313.771 7.66932 7404.28 22 268.747 174.492 
-0.2871 256.167 6.26133 7348.78 22 325.365 96.5489 
-0.2863 223.03 7.18593 7351.93 29 340.838 0 
-0.2855 273.148 7.58681 7426.59 25 182.967 107.412 
-0.2847 315.33 3.50337 7375.76 10 237.219 0 
-0.2839 224.056 2.48931 7407.78 10 456.252 0 
-0.2831 253.398 5.34907 7287.87 19 241.104 0 
-0.2823 325.088 5.77886 7302.03 16 309.948 0 
-0.2815 198.459 3.74835 7371.31 17 169.157 83.3767 
-0.2807 335.034 7.44458 7402.26 20 398.344 79.0455 
-0.2799 216.978 7.95519 7407.92 33 325.354 84.023 
-0.2791 255.785 5.11526 7418.13 18 240.082 215.366 
-0.2783 398.924 8.86425 7443.24 20 370.819 101.378 
-0.2775 232.084 5.93055 7425.3 23 277.614 111.098 
-0.2767 309.739 7.22665 7407.61 21 243.41 0 
-0.2759 266.438 4.14424 7488.49 14 342.919 89.1941 
-0.2751 257.007 6.28186 7367.7 22 335.973 77.0444 
-0.2743 338.119 8.26445 7407.46 22 140.449 153.406 
-0.2735 303.673 6.07296 7359.42 18 395.922 81.8019 
-0.2727 210.868 5.15413 7433.84 22 383.001 0 
-0.2719 332.951 6.65846 7427.17 18 278.217 246.287 
-0.2711 220.17 4.64764 7291.38 19 247.813 182.117 
-0.2703 308.61 7.54318 7485.01 22 229.25 76.8802 
-0.2695 353.53 6.28446 7332.9 16 262.693 109.19 
-0.2687 304.341 6.76256 7345.2 20 340.672 79.4976 
-0.2679 285.288 4.43745 7476.69 14 216.822 0 
-0.2671 228.856 4.32247 7406.48 17 293.362 108.49 
-0.2663 228.523 4.57007 7299.85 18 320.781 0 
-0.2655 243.855 7.31505 7412.8 27 340.365 162.144 
-0.2647 259.44 7.78254 7402.67 27 288.252 161.715 
-0.2639 283.587 6.61649 7432.32 21 238.068 192.991 
-0.2631 207.501 4.61075 7454.4 20 360.865 0 
-0.2623 216.047 5.52074 7323.78 23 483.682 171.12 
-0.2615 214.462 3.09752 7361.45 13 226.658 0 
-0.2607 303.369 5.39278 7330.82 16 252.561 84.6795 
-0.2599 274.533 6.71026 7380.99 22 338.642 115.841 
-0.2591 290.542 6.13314 7443.02 19 380.502 0 
-0.2583 338.474 6.39286 7438.33 17 465.597 83.3767 
-0.2575 206.997 4.59955 7412.55 20 288.218 0 
-0.2567 247.528 5.77517 7431.43 21 382.27 0 
-0.2559 354.403 8.26872 7300.25 21 314.707 0 
-0.2551 275.31 5.81161 7371.99 19 383.659 161.776 
-0.2543 290.811 7.10812 7399.67 22 307.791 113.153 
-0.2535 255.311 5.95676 7521.09 21 237.975 99.4156 
-0.2527 229.152 3.56429 7326.93 14 179.913 88.5933 
-0.2519 250.394 5.84203 7430.73 21 322.677 0 
-0.2511 210.437 3.50699 7296.57 15 330.515 87.039 
-0.2503 205.184 6.61092 7357.36 29 309.416 203.119 
-0.4993 293.176 6.18876 7499.05 19 279.789 183.131 
-0.4985 344.388 8.8003 7310.35 23 215.837 172.39 
-0.4977 348.125 6.57514 7443.97 17 298.782 84.0885 
-0.4969 320.065 7.82315 7387.04 22 164.949 153.406 
-0.4961 275.975 7.35872 7442.31 24 264.364 0 
-0.4953 299.609 7.65603 7334.06 23 274.947 126.733 
-0.4945 292.337 6.82062 7452.64 21 294.19 77.8293 
-0.4937 294.876 5.89703 7442 18 324.759 82.1134 
-0.4929 334.505 4.83133 7476 13 254.118 0 
-0.4921 201.223 3.80056 7428.95 17 215.097 0 
-0.4913 368.609 7.78109 7441.72 19 320.808 80.0856 
-0.4905 206.584 3.6723 7442.24 16 309.974 110.269 
-0.4897 307.895 6.15738 7523.6 18 183.848 0 
-0.4889 252.124 4.76194 7330.87 17 252.988 166.753 
-0.4881 246.963 4.1157 7396.59 15 278.417 202.203 
-0.4873 264.822 5.88443 7346.24 20 240.814 79.4976 
-0.4865 325.962 7.60514 7430.33 21 317.191 229.148 
-0.4857 269.737 3.59619 7310.75 12 252.897 95.2879 
-0.4849 189.769 2.31921 7395.82 11 265.686 193.098 
-0.4841 322.737 6.09564 7324.66 17 242.42 0 
-0.4833 338.096 6.76135 7382.69 18 295.365 82.4105 
-0.4825 251.973 6.99868 7409.2 25 317.005 181.049 
-0.4817 223.9 5.7214 7406.66 23 352.777 75.4912 
-0.4809 244.871 4.08084 7379.6 15 335.101 0 
-0.4801 280.577 8.10489 7363.49 26 384.927 199.579 
-0.4793 302.783 8.40994 7314.57 25 404.244 73.885 
-0.4785 279.702 7.76886 7361.22 25 294.239 73.6366 
-0.4777 266.949 6.52487 7368.25 22 351.48 175.202 
-0.4769 268.42 5.66617 7405.08 19 297.079 0 
-0.4761 201.068 4.24442 7453.19 19 471.15 160.171 
-0.4753 264.81 3.53051 7369.66 12 484.659 0 
-0.4745 265.656 8.85447 7383.46 30 222.874 139.871 
-0.4737 318.922 8.85822 7277.93 25 466.153 73.7654 
-0.4729 290.073 5.4787 7425.77 17 475.391 0 
-0.4721 292.746 5.52918 7393.42 17 372.937 0 
-0.4713 338.761 6.39829 7423.7 17 184.715 211.354 
-0.4705 346.183 9.23077 7411.62 24 304.134 74.9398 
-0.4697 243.309 7.02834 7290.46 26 314.524 0 
-0.4689 229.942 4.34299 7493.15 17 256.599 83.7397 
-0.4681 219.332 4.14259 7469.22 17 207.348 0 
-0.4673 305.721 7.81222 7363.95 23 301.655 188.503 
-0.4665 294.815 7.53354 7286.74 23 385.188 75.9539 
-0.4657 319.304 8.51406 7380.52 24 410.499 109.19 
-0.4649 333.779 3.70834 7417.72 10 407.392 0 
-0.4641 235.524 3.92506 7485.24 15 262.163 0 
-0.4633 293.675 9.1358 7386.51 28 359.515 71.3383 
-0.4625 281.428 7.19144 7334.65 23 303.5 75.6561 
-0.4617 359.49 6.78981 7356.58 17 322.795 109.508 
-0.4609 255.854 5.11665 7454.9 18 392.781 163.604 
-0.4601 337.402 6.74747 7356.53 18 276.16 246.287 
-0.4593 288.399 5.44709 7417.54 17 253.31 166.01 
-0.4585 259.975 6.06559 7405.77 21 281.97 155.659 
-0.4577 322.281 10.0257 7349.38 28 286.169 142.84 
-0.4569 282.585 6.59309 7410.94 21 358.601 0 
-0.4561 259.182 5.18321 7435.98 18 307.103 82.1134 
-0.4553 242.373 5.92417 7385.52 22 268.176 230.591 
-0.4545 338.703 6.77349 7358.82 18 259.466 82.1134 
-0.4537 296.903 8.57648 7428.46 26 318.984 73.0127 
-0.4529 207.471 6.22361 7448.25 27 227.742 0 
-0.4521 336.442 4.85931 7452.24 13 194.114 0 
-0.4513 263.654 5.27265 7431.15 18 297.697 0 
-0.4505 275.652 5.81884 7425.01 19 319.114 0 
-0.4497 256.94 6.28024 7383.78 22 359.01 98.1572 
-0.4489 194.421 2.80807 7390.11 13 325.148 0 
-0.4481 250.996 4.74063 7340.64 17 362.631 211.354 
-0.4473 174.898 4.08062 7443.49 21 281.984 0 
-0.4465 289.938 6.44253 7379.84 20 249.972 79.4976 
-0.4457 331.325 7.73027 7398.1 21 364.296 78.0321 
-0.4449 278.946 3.40906 7438.38 11 216.376 0 
-0.4441 343.662 7.25449 7431.15 19 365.364 183.131 
-0.4433 268.865 5.97428 7406.86 20 275.094 100.052 
-0.4425 205.062 3.64525 7438.35 16 290.313 86.3409 
-0.4417 221.931 5.42452 7429.55 22 394.2 191.793 
-0.4409 204.99 4.3272 7423.16 19 235.174 0 
-0.4401 266.105 5.32166 7394.69 18 359.78 187.995 
-0.4393 253.327 4.22177 7464.34 15 283.398 0 
-0.4385 356.355 6.73058 7374.2 17 287.548 0 
-0.4377 235.405 4.70771 7486.25 18 367.185 81.8019 
-0.4369 327.4 9.82118 7358.15 27 332.104 107.683 
-0.4361 239.659 6.39037 7359.24 24 369.599 94.4034 
-0.4353 247.002 6.31175 7373.06 23 315.688 0 
-0.4345 322.108 10.736 7354.75 30 218.872 86.531 
-0.4337 379.174 9.26791 7320.65 22 235.616 0 
-0.4329 279.869 7.1516 7382.72 23 314.095 111.098 
-0.4321 326.567 9.07054 7410.23 25 299.904 147.77 
-0.4313 362.009 5.22858 7352.89 13 369.38 120.776 
-0.4305 236.014 3.93323 7360.72 15 269.085 173.062 
-0.4297 225.325 4.00545 7456.86 16 420.011 85.9507 
-0.4289 290.059 6.12297 7456.92 19 344.913 0 
-0.4281 226.572 5.53797 7444.55 22 321.152 190.72 
-0.4273 300.927 9.02706 7386.68 27 352.794 117.164 
-0.4265 308.147 8.21657 7403.95 24 486.542 351.745 
-0.4257 175.995 4.10621 7451.06 21 238.905 155.232 
-0.4249 327.467 8.73174 7375.77 24 370.577 0 
-0.4241 359.256 5.58796 7330.51 14 296.208 88.5933 
-0.4233 238.268 4.76497 7374.83 18 231.228 81.4807 
-0.4225 222.075 4.93459 7359.6 20 252.031 119.96 
-0.4217 267.736 6.24664 7423.18 21 365.011 156.064 
-0.4209 237.256 7.38069 7333.99 28 386.631 142.677 
-0.4201 251.239 5.58263 7458.33 20 244.229 0 
-0.4193 348.501 8.90541 7344.44 23 307.953 95.4641 
-0.4185 313.798 5.22953 7407.19 15 332.555 174.078 
-0.4177 236.051 5.76965 7378.67 22 359.566 173.779 
-0.4169 249.777 5.27263 7402.74 19 459.302 80.0856 
-0.4161 302.778 8.07341 7418.21 24 320.964 74.6794 
-0.4153 258.179 7.17104 7450.44 25 304.74 165.816 
-0.4145 256.346 3.41766 7421.28 12 432.862 93.536 
-0.4137 188.341 4.6035 7319.04 22 359.269 76.7031 
-0.4129 284.17 5.99864 7387.95 19 214.31 80.0856 
-0.4121 210.745 3.9804 7417.65 17 338.081 165.956 
-0.4113 187.038 3.94826 7405.8 19 312.76 241.042 
-0.4105 230.008 3.5776 7478.84 14 254.654 0 
-0.4097 301.549 7.03556 7437.14 21 378.612 176.646 
-0.4089 253.692 5.35527 7443.74 19 268.957 80.3645 
-0.4081 261.662 4.65139 7411.21 16 313.918 171.077 
-0.4073 321.614 5.71711 7403.76 16 366.074 171.901 
-0.4065 348.46 6.19433 7307.58 16 192.458 0 
-0.4057 282.682 7.2235 7336.5 23 357.795 249.458 
-0.4049 214.789 6.68177 7373.18 28 437.773 88.8933 
-0.4041 290.446 6.77651 7399.86 21 330.673 156.787 
-0.4033 267.953 6.25172 7476.9 21 283.292 0 
-0.4025 299.38 5.65448 7350.62 17 273.684 166.01 
-0.4017 196.991 4.15835 7408.27 19 272.704 81.1229 
-0.4009 182.912 2.64184 7393.73 13 228.558 92.3511 
-0.4001 227.867 5.0633 7414.19 20 361.141 100.707 
-0.3993 246.85 5.21085 7391.33 19 340.18 80.0856 
-0.3985 284.611 6.64036 7437.74 21 422.231 78.0321 
-0.3977 302.99 6.73255 7427.74 20 297.74 79.0455 
-0.3969 300.903 6.35187 7453.96 19 469.922 80.6333 
-0.3961 220.939 4.4184 7311.28 18 340.823 185.674 
-0.3953 337.806 7.88147 7333.46 21 339.521 0 
-0.3945 237.364 5.0106 7334.68 19 342.947 80.0856 
-0.3937 376.879 7.95566 7448.97 19 363.976 160.171 
-0.3929 309.819 7.91694 7454.73 23 263.69 171.12 
-0.3921 388.502 9.06429 7446.82 21 371.68 98.8171 
-0.3913 276.907 7.38356 7404.94 24 371.872 149.359 
-0.3905 275.539 4.89806 7404.95 16 358.755 0 
-0.3897 233.703 5.19296 7309.23 20 352.16 0 
-0.3889 281.792 5.63536 7342.27 18 301.836 104.194 
-0.3881 215.38 5.2644 7388.61 22 331.957 173.065 
-0.3873 293.956 7.83817 7398.43 24 312.189 168.646 
-0.3865 276.073 5.21427 7463.49 17 419.88 0 
-0.3857 314.561 7.33914 7409.61 21 207.861 176.646 
-0.3849 298.728 6.96974 7469.08 21 202.552 78.0321 
-0.3841 329.656 7.69134 7409.19 21 343.697 99.4156 
-0.3833 325.621 8.32072 7481.52 23 316.879 227.385 
-0.3825 266.794 5.03902 7464.1 17 244.609 168.177 
-0.3817 261.528 6.1018 7429.24 21 358.54 155.659 
-0.3809 292.633 6.82753 7354.04 21 292.868 77.6162 
-0.3801 296.989 4.28949 7495.37 13 487.71 90.9094 
-0.3793 282.949 5.02978 7441.46 16 442.962 193.869 
-0.3785 250.793 5.29409 7428.85 19 304.153 0 
-0.3777 251.311 5.0258 7492.66 18 339.581 81.4807 
-0.3769 272.259 6.65465 7400.68 22 348.665 76.7031 
-0.3761 387.543 8.18078 7323.44 19 401.889 182.117 
-0.3753 266.427 7.69613 7380.06 26 380.87 218.991 
-0.3745 267.979 5.95459 7462.37 20 241.207 0 
-0.3737 250.179 5.55906 7398.56 20 303.338 0 
-0.3729 247.19 7.41508 7460.47 27 361.661 72.2752 
-0.3721 252.602 5.61291 7542.41 20 333.86 159.345 
-0.3713 269.74 5.99372 7418.11 20 339.356 178.855 
-0.3705 229.319 3.82166 7493.59 15 395.952 0 
-0.3697 259.282 4.89714 7339.85 17 512.079 83.7397 
-0.3689 366.854 8.15163 7407.29 20 191.519 79.2785 
-0.3681 320.208 11.0285 7433.45 31 340.592 168.047 
-0.3673 288.815 6.41758 7444.37 20 278.755 78.8022 
-0.3665 290.617 6.45762 7405.7 20 282.706 79.0455 
-0.3657 276.677 8.60702 7359.1 28 390.494 0 
-0.3649 233.797 5.97431 7438.98 23 388.469 189.977 
-0.3641 210.194 4.43706 7364.88 19 497.203 0 
-0.3633 262.849 6.71669 7331.38 23 229.661 0 
-0.3625 225.333 7.26012 7404.67 29 351.663 70.6898 
-0.3617 288.967 5.4578 7443.73 17 413.193 0 
-0.3609 277.965 7.41177 7352.1 24 249.63 198.969 
-0.3601 318.267 5.304 7430.09 15 280.675 0 
-0.3593 315.991 6.3193 7313.89 18 204.218 0 
-0.3585 204.365 3.63286 7332.08 16 291.56 0 
-0.3577 275.971 5.82556 7469.5 19 197.45 185.189 
-0.3569 314.716 7.69242 7435.09 22 364.373 0 
-0.3561 240.688 3.74372 7401.14 14 510.676 206.018 
-0.3553 202.717 2.70266 7248.57 12 508.969 0 
-0.3545 366.462 7.32863 7351.5 18 237.193 0 
-0.3537 259.02 4.31665 7409.5 15 288.52 112.106 
-0.3529 311.312 10.7221 7380.27 31 311.786 0 
-0.3521 263.545 6.73447 7428.69 23 203.07 75.9539 
-0.3513 316.074 4.56513 7349.21 13 242.396 184.702 
-0.3505 283.774 5.04445 7452.83 16 394.888 0 
-0.3497 264.264 5.28485 7372.89 18 276.192 140.733 
-0.3489 275.996 5.21282 7300.41 17 236.106 107.51 
-0.3481 229.345 8.15379 7419.51 32 298.052 84.8966 
-0.3473 256.401 6.26705 7449.63 22 276.353 76.7031 
-0.3465 165.786 2.94705 7481.3 16 331.724 253.984 
-0.3457 302.087 7.38372 7535.11 22 343.784 76.5158 
-0.3449 217.426 6.03912 7389.89 25 402.848 182.619 
-0.3441 260.858 4.92692 7443.16 17 386.337 0 
-0.3433 337.24 4.87084 7296.72 13 462.59 0 
-0.3425 303.57 5.39635 7440.33 16 212.562 85.1125 
-0.3417 274.84 6.71775 7353.23 22 294.935 0 
-0.3409 326.991 5.0861 7471.52 14 447.237 89.1941 
-0.3401 303.409 6.74186 7369.04 20 226.999 0 
-0.3393 242.482 5.11864 7388.57 19 213.91 0 
-0.3385 309.855 8.60637 7421.56 25 317.059 92.9674 
-0.3377 373.748 7.05909 7405.71 17 341.39 83.7397 
-0.3369 303.401 6.06751 7494.13 18 286.293 186.825 
-0.3361 303.884 7.09004 7371.06 21 293.517 77.8293 
-0.3353 223.935 6.96629 7418.84 28 357.661 0 
-0.3345 242.3 9.15277 7363 34 294.961 0 
-0.3337 201.229 6.25993 7428.08 28 327.659 71.2486 
-0.3329 282.394 8.15737 7492.74 26 310.953 0 
-0.3321 227.858 4.80993 7452.78 19 406.637 204.064 
-0.3313 208.661 3.24557 7416.21 14 412.59 88.5933 
-0.3305 217.954 4.11657 7396.88 17 445.75 83.0049 
-0.3297 268.355 6.2611 7422.56 21 238.069 77.8293 
-0.3289 201.659 3.80879 7394.11 17 415.68 84.4158 
-0.3281 237.137 6.32314 7391.61 24 232.172 94.4034 
-0.3273 247.58 4.67612 7383.24 17 245.195 190.887 
-0.3265 254.571 6.50517 7477.42 23 281.808 96.436 
-0.3257 302.019 8.38871 7454.18 25 333.711 133.899 
-0.3249 236.312 4.20075 7427.28 16 249.669 218.38 
-0.3241 332.56 7.02014 7351.57 19 326.135 80.0856 
-0.3233 274.429 4.26855 7371.28 14 323.283 88.5933 
-0.3225 247.859 6.88439 7359.66 25 308.392 0 
-0.3217 400.102 8.44589 7369.22 19 365.774 80.8879 
-0.3209 282.905 5.34331 7465.56 17 345.516 190.887 
-0.3201 253.968 6.48975 7413 23 336.165 172.39 
-0.3193 213.636 5.6965 7391.99 24 422.296 183.724 
-0.3185 176.703 3.92642 7446.92 20 409.854 78.8022 
-0.3177 255.052 5.10062 7369.27 18 468.277 0 
-0.3169 278.372 8.0412 7346.86 26 243.027 0 
-0.3161 343.433 8.39434 7329.77 22 272.368 76.5158 
-0.3153 322.443 7.16481 7484.32 20 283.956 238.308 
-0.3145 296.219 5.59479 7395.36 17 352.843 107.51 
-0.3137 220.953 5.6461 7483.02 23 253.705 249.044 
-0.3129 206.404 3.89841 7343.14 17 388.909 84.4158 
-0.3121 242.025 4.03341 7374.86 15 303.386 86.531 
-0.3113 285.169 6.6534 7402.24 21 272.176 98.2313 
-0.3105 288.532 8.0141 7412.54 25 331.469 182.619 
-0.3097 213.066 4.26096 7416.99 18 323.002 0 
-0.3089 326.687 7.2591 7472 20 373.757 181.562 
-0.3081 137.224 2.43933 7472.67 16 275.883 84.6795 
-0.3073 232.42 7.48847 7418.38 29 324.01 70.618 
-0.3065 200.208 5.11599 7371.19 23 281.465 75.6561 
-0.3057 181.684 3.43152 7435.24 17 323.282 0 
-0.3049 283.692 6.93411 7393.25 22 321.433 175.202 
-0.3041 315.99 7.37248 7425.18 21 275.822 175.848 
-0.3033 272.457 6.65951 7374.58 22 269.282 190.72 
-0.3025 283.393 4.72283 7366.84 15 243.144 87.5423 
-0.3017 327.389 9.09338 7467.21 25 265.021 166.852 
-0.3009 298.434 8.28915 7368.86 25 209.491 74.1668 
-0.3001 241.318 6.4346 7430.25 24 409.367 0 
-0.2993 234.401 4.4272 7383.81 17 284.549 251.249 
-0.2985 405.794 9.91859 7368.42 22 408.031 76.7031 
-0.2977 283.9 9.14713 7414.85 29 330.636 0 
-0.2969 249.195 5.81408 7431.24 21 252.955 98.2313 
-0.2961 294.535 4.58128 7471.5 14 337.353 89.7945 
-0.2953 291.833 5.18771 7467.03 16 373.137 170.225 
-0.2945 278.951 3.09919 7539.84 10 313.769 100.052 
-0.2937 199.618 4.2138 7398.96 19 344.838 80.3645 
-0.2929 272.884 5.76041 7373.63 19 541.801 161.267 
-0.2921 257.632 8.01456 7416.97 28 311.269 159.842 
-0.2913 239.914 5.06444 7394.46 19 218.946 80.0856 
-0.2905 321.108 8.91891 7368.96 25 305.632 0 
-0.2897 276.511 6.45138 7476.12 21 299.918 77.8293 
-0.2889 294.105 6.86189 7406.46 21 343.324 78.2215 
-0.2881 160.167 1.95744 7414.82 11 231.696 0 
-0.2873 325.138 5.41852 7305.89 15 549.917 176.068 
-0.2865 217.29 4.10403 7289.24 17 212.599 83.3767 
-0.2857 272.181 4.83837 7368.47 16 223.826 195.381 
-0.2849 318.286 6.36519 7400.39 18 395.146 0 
-0.2841 315.862 5.96578 7368.48 17 324.911 166.01 
-0.2833 229.981 3.8327 7394.33 15 272.031 220.43 
-0.2825 337.473 10.1233 7394.4 27 249.668 90.0436 
-0.2817 239.312 5.05171 7386.2 19 351.198 121.603 
-0.2809 265.689 6.49407 7444.28 22 362.348 174.492 
-0.2801 320.956 6.41858 7435.56 18 278.444 104.194 
-0.2793 277.311 5.54576 7385.64 18 256.568 106.768 
-0.2785 263.533 4.97743 7423.16 17 307.15 168.177 
-0.2777 232.915 5.17546 7478.74 20 438.382 79.0455 
-0.2769 291.766 8.10394 7399.81 25 395.916 73.885 
-0.2761 183.709 5.10259 7385.91 25 236.368 0 
-0.2753 311.427 8.65004 7431.17 25 286.129 165.816 
-0.2745 253.969 4.23247 7421.44 15 296.571 0 
-0.2737 196.272 4.36124 7458.65 20 320.633 79.0455 