ITEM: TIMESTEP
0
ITEM: NUMBER OF CELLS
400
ITEM: BOX BOUNDS oo rr pp
0 10
0 10
-0.5 0.5
ITEM: CELLS id xc yc v_xnew v_ynew 
1 0.25 0.25 0 0 
5 2.25 0.25 2 0 
9 4.25 0.25 4 0 
21 0.25 0.75 0 0 
25 2.25 0.75 2 0 
29 4.25 0.75 4 0 
41 0.25 1.25 0 1 
45 2.25 1.25 2 1 
49 4.25 1.25 4 1 
61 0.25 1.75 0 1 
65 2.25 1.75 2 1 
69 4.25 1.75 4 1 
81 0.25 2.25 0 2 
85 2.25 2.25 2 2 
89 4.25 2.25 4 2 
101 0.25 2.75 0 2 
105 2.25 2.75 2 2 
109 4.25 2.75 4 2 
121 0.25 3.25 0 3 
125 2.25 3.25 2 3 
129 4.25 3.25 4 3 
141 0.25 3.75 0 3 
145 2.25 3.75 2 3 
149 4.25 3.75 4 3 
161 0.25 4.25 0 4 
165 2.25 4.25 2 4 
169 4.25 4.25 4 4 
181 0.25 4.75 0 4 
185 2.25 4.75 2 4 
189 4.25 4.75 4 4 
2 0.75 0.25 0 0 
6 2.75 0.25 2 0 
10 4.75 0.25 4 0 
22 0.75 0.75 0 0 
26 2.75 0.75 2 0 
30 4.75 0.75 4 0 
42 0.75 1.25 0 1 
46 2.75 1.25 2 1 
50 4.75 1.25 4 1 
62 0.75 1.75 0 1 
66 2.75 1.75 2 1 
70 4.75 1.75 4 1 
82 0.75 2.25 0 2 
86 2.75 2.25 2 2 
90 4.75 2.25 4 2 
102 0.75 2.75 0 2 
106 2.75 2.75 2 2 
110 4.75 2.75 4 2 
122 0.75 3.25 0 3 
126 2.75 3.25 2 3 
130 4.75 3.25 4 3 
142 0.75 3.75 0 3 
146 2.75 3.75 2 3 
150 4.75 3.75 4 3 
162 0.75 4.25 0 4 
166 2.75 4.25 2 4 
170 4.75 4.25 4 4 
182 0.75 4.75 0 4 
186 2.75 4.75 2 4 
190 4.75 4.75 4 4 
3 1.25 0.25 1 0 
7 3.25 0.25 3 0 
23 1.25 0.75 1 0 
27 3.25 0.75 3 0 
43 1.25 1.25 1 1 
47 3.25 1.25 3 1 
63 1.25 1.75 1 1 
67 3.25 1.75 3 1 
83 1.25 2.25 1 2 
87 3.25 2.25 3 2 
103 1.25 2.75 1 2 
107 3.25 2.75 3 2 
123 1.25 3.25 1 3 
127 3.25 3.25 3 3 
143 1.25 3.75 1 3 
147 3.25 3.75 3 3 
163 1.25 4.25 1 4 
167 3.25 4.25 3 4 
183 1.25 4.75 1 4 
187 3.25 4.75 3 4 
4 1.75 0.25 1 0 
8 3.75 0.25 3 0 
24 1.75 0.75 1 0 
28 3.75 0.75 3 0 
44 1.75 1.25 1 1 
48 3.75 1.25 3 1 
64 1.75 1.75 1 1 
68 3.75 1.75 3 1 
84 1.75 2.25 1 2 
88 3.75 2.25 3 2 
104 1.75 2.75 1 2 
108 3.75 2.75 3 2 
124 1.75 3.25 1 3 
128 3.75 3.25 3 3 
144 1.75 3.75 1 3 
148 3.75 3.75 3 3 
164 1.75 4.25 1 4 
168 3.75 4.25 3 4 
184 1.75 4.75 1 4 
188 3.75 4.75 3 4 
202 0.75 5.25 0 5 
206 2.75 5.25 2 5 
210 4.75 5.25 4 5 
222 0.75 5.75 0 5 
226 2.75 5.75 2 5 
230 4.75 5.75 4 5 
242 0.75 6.25 0 6 
246 2.75 6.25 2 6 
250 4.75 6.25 4 6 
262 0.75 6.75 0 6 
266 2.75 6.75 2 6 
270 4.75 6.75 4 6 
282 0.75 7.25 0 7 
286 2.75 7.25 2 7 
290 4.75 7.25 4 7 
302 0.75 7.75 0 7 
306 2.75 7.75 2 7 
310 4.75 7.75 4 7 
322 0.75 8.25 0 8 
326 2.75 8.25 2 8 
330 4.75 8.25 4 8 
342 0.75 8.75 0 8 
346 2.75 8.75 2 8 
350 4.75 8.75 4 8 
362 0.75 9.25 0 9 
366 2.75 9.25 2 9 
370 4.75 9.25 4 9 
382 0.75 9.75 0 9 
386 2.75 9.75 2 9 
390 4.75 9.75 4 9 
201 0.25 5.25 0 5 
205 2.25 5.25 2 5 
209 4.25 5.25 4 5 
221 0.25 5.75 0 5 
225 2.25 5.75 2 5 
229 4.25 5.75 4 5 
241 0.25 6.25 0 6 
245 2.25 6.25 2 6 
249 4.25 6.25 4 6 
261 0.25 6.75 0 6 
265 2.25 6.75 2 6 
269 4.25 6.75 4 6 
281 0.25 7.25 0 7 
285 2.25 7.25 2 7 
289 4.25 7.25 4 7 
301 0.25 7.75 0 7 
305 2.25 7.75 2 7 
309 4.25 7.75 4 7 
321 0.25 8.25 0 8 
325 2.25 8.25 2 8 
329 4.25 8.25 4 8 
341 0.25 8.75 0 8 
345 2.25 8.75 2 8 
349 4.25 8.75 4 8 
361 0.25 9.25 0 9 
365 2.25 9.25 2 9 
369 4.25 9.25 4 9 
381 0.25 9.75 0 9 
385 2.25 9.75 2 9 
389 4.25 9.75 4 9 
203 1.25 5.25 1 5 
207 3.25 5.25 3 5 
223 1.25 5.75 1 5 
227 3.25 5.75 3 5 
243 1.25 6.25 1 6 
247 3.25 6.25 3 6 
263 1.25 6.75 1 6 
267 3.25 6.75 3 6 
283 1.25 7.25 1 7 
287 3.25 7.25 3 7 
303 1.25 7.75 1 7 
307 3.25 7.75 3 7 
323 1.25 8.25 1 8 
327 3.25 8.25 3 8 
343 1.25 8.75 1 8 
347 3.25 8.75 3 8 
363 1.25 9.25 1 9 
367 3.25 9.25 3 9 
383 1.25 9.75 1 9 
387 3.25 9.75 3 9 
204 1.75 5.25 1 5 
208 3.75 5.25 3 5 
224 1.75 5.75 1 5 
228 3.75 5.75 3 5 
244 1.75 6.25 1 6 
248 3.75 6.25 3 6 
264 1.75 6.75 1 6 
268 3.75 6.75 3 6 
284 1.75 7.25 1 7 
288 3.75 7.25 3 7 
304 1.75 7.75 1 7 
308 3.75 7.75 3 7 
324 1.75 8.25 1 8 
328 3.75 8.25 3 8 
344 1.75 8.75 1 8 
348 3.75 8.75 3 8 
364 1.75 9.25 1 9 
368 3.75 9.25 3 9 
384 1.75 9.75 1 9 
388 3.75 9.75 3 9 
11 5.25 0.25 5 0 
15 7.25 0.25 7 0 
19 9.25 0.25 9 0 
31 5.25 0.75 5 0 
35 7.25 0.75 7 0 
39 9.25 0.75 9 0 
51 5.25 1.25 5 1 
55 7.25 1.25 7 1 
59 9.25 1.25 9 1 
71 5.25 1.75 5 1 
75 7.25 1.75 7 1 
79 9.25 1.75 9 1 
91 5.25 2.25 5 2 
95 7.25 2.25 7 2 
99 9.25 2.25 9 2 
111 5.25 2.75 5 2 
115 7.25 2.75 7 2 
119 9.25 2.75 9 2 
131 5.25 3.25 5 3 
135 7.25 3.25 7 3 
139 9.25 3.25 9 3 
151 5.25 3.75 5 3 
155 7.25 3.75 7 3 
159 9.25 3.75 9 3 
171 5.25 4.25 5 4 
175 7.25 4.25 7 4 
179 9.25 4.25 9 4 
191 5.25 4.75 5 4 
195 7.25 4.75 7 4 
199 9.25 4.75 9 4 
13 6.25 0.25 6 0 
17 8.25 0.25 8 0 
33 6.25 0.75 6 0 
37 8.25 0.75 8 0 
53 6.25 1.25 6 1 
57 8.25 1.25 8 1 
73 6.25 1.75 6 1 
77 8.25 1.75 8 1 
93 6.25 2.25 6 2 
97 8.25 2.25 8 2 
113 6.25 2.75 6 2 
117 8.25 2.75 8 2 
133 6.25 3.25 6 3 
137 8.25 3.25 8 3 
153 6.25 3.75 6 3 
157 8.25 3.75 8 3 
173 6.25 4.25 6 4 
177 8.25 4.25 8 4 
193 6.25 4.75 6 4 
197 8.25 4.75 8 4 
14 6.75 0.25 6 0 
18 8.75 0.25 8 0 
34 6.75 0.75 6 0 
38 8.75 0.75 8 0 
54 6.75 1.25 6 1 
58 8.75 1.25 8 1 
74 6.75 1.75 6 1 
78 8.75 1.75 8 1 
94 6.75 2.25 6 2 
98 8.75 2.25 8 2 
114 6.75 2.75 6 2 
118 8.75 2.75 8 2 
134 6.75 3.25 6 3 
138 8.75 3.25 8 3 
154 6.75 3.75 6 3 
158 8.75 3.75 8 3 
174 6.75 4.25 6 4 
178 8.75 4.25 8 4 
194 6.75 4.75 6 4 
198 8.75 4.75 8 4 
12 5.75 0.25 5 0 
16 7.75 0.25 7 0 
20 9.75 0.25 9 0 
32 5.75 0.75 5 0 
36 7.75 0.75 7 0 
40 9.75 0.75 9 0 
52 5.75 1.25 5 1 
56 7.75 1.25 7 1 
60 9.75 1.25 9 1 
72 5.75 1.75 5 1 
76 7.75 1.75 7 1 
80 9.75 1.75 9 1 
92 5.75 2.25 5 2 
96 7.75 2.25 7 2 
100 9.75 2.25 9 2 
112 5.75 2.75 5 2 
116 7.75 2.75 7 2 
120 9.75 2.75 9 2 
132 5.75 3.25 5 3 
136 7.75 3.25 7 3 
140 9.75 3.25 9 3 
152 5.75 3.75 5 3 
156 7.75 3.75 7 3 
160 9.75 3.75 9 3 
172 5.75 4.25 5 4 
176 7.75 4.25 7 4 
180 9.75 4.25 9 4 
192 5.75 4.75 5 4 
196 7.75 4.75 7 4 
200 9.75 4.75 9 4 
212 5.75 5.25 5 5 
216 7.75 5.25 7 5 
220 9.75 5.25 9 5 
232 5.75 5.75 5 5 
236 7.75 5.75 7 5 
240 9.75 5.75 9 5 
252 5.75 6.25 5 6 
256 7.75 6.25 7 6 
260 9.75 6.25 9 6 
272 5.75 6.75 5 6 
276 7.75 6.75 7 6 
280 9.75 6.75 9 6 
292 5.75 7.25 5 7 
296 7.75 7.25 7 7 
300 9.75 7.25 9 7 
312 5.75 7.75 5 7 
316 7.75 7.75 7 7 
320 9.75 7.75 9 7 
332 5.75 8.25 5 8 
336 7.75 8.25 7 8 
340 9.75 8.25 9 8 
352 5.75 8.75 5 8 
356 7.75 8.75 7 8 
360 9.75 8.75 9 8 
372 5.75 9.25 5 9 
376 7.75 9.25 7 9 
380 9.75 9.25 9 9 
392 5.75 9.75 5 9 
396 7.75 9.75 7 9 
400 9.75 9.75 9 9 
213 6.25 5.25 6 5 
217 8.25 5.25 8 5 
233 6.25 5.75 6 5 
237 8.25 5.75 8 5 
253 6.25 6.25 6 6 
257 8.25 6.25 8 6 
273 6.25 6.75 6 6 
277 8.25 6.75 8 6 
293 6.25 7.25 6 7 
297 8.25 7.25 8 7 
313 6.25 7.75 6 7 
317 8.25 7.75 8 7 
333 6.25 8.25 6 8 
337 8.25 8.25 8 8 
353 6.25 8.75 6 8 
357 8.25 8.75 8 8 
373 6.25 9.25 6 9 
377 8.25 9.25 8 9 
393 6.25 9.75 6 9 
397 8.25 9.75 8 9 
214 6.75 5.25 6 5 
218 8.75 5.25 8 5 
234 6.75 5.75 6 5 
238 8.75 5.75 8 5 
254 6.75 6.25 6 6 
258 8.75 6.25 8 6 
274 6.75 6.75 6 6 
278 8.75 6.75 8 6 
294 6.75 7.25 6 7 
298 8.75 7.25 8 7 
314 6.75 7.75 6 7 
318 8.75 7.75 8 7 
334 6.75 8.25 6 8 
338 8.75 8.25 8 8 
354 6.75 8.75 6 8 
358 8.75 8.75 8 8 
374 6.75 9.25 6 9 
378 8.75 9.25 8 9 
394 6.75 9.75 6 9 
398 8.75 9.75 8 9 
211 5.25 5.25 5 5 
215 7.25 5.25 7 5 
219 9.25 5.25 9 5 
231 5.25 5.75 5 5 
235 7.25 5.75 7 5 
239 9.25 5.75 9 5 
251 5.25 6.25 5 6 
255 7.25 6.25 7 6 
259 9.25 6.25 9 6 
271 5.25 6.75 5 6 
275 7.25 6.75 7 6 
279 9.25 6.75 9 6 
291 5.25 7.25 5 7 
295 7.25 7.25 7 7 
299 9.25 7.25 9 7 
311 5.25 7.75 5 7 
315 7.25 7.75 7 7 
319 9.25 7.75 9 7 
331 5.25 8.25 5 8 
335 7.25 8.25 7 8 
339 9.25 8.25 9 8 
351 5.25 8.75 5 8 
355 7.25 8.75 7 8 
359 9.25 8.75 9 8 
371 5.25 9.25 5 9 
375 7.25 9.25 7 9 
379 9.25 9.25 9 9 
391 5.25 9.75 5 9 
395 7.25 9.75 7 9 
399 9.25 9.75 9 9 
ITEM: TIMESTEP
1000
ITEM: NUMBER OF CELLS
400
ITEM: BOX BOUNDS oo rr pp
0 10
0 10
-0.5 0.5
ITEM: CELLS id xc yc v_xnew v_ynew 
1 0.25 0.25 0 0 
5 2.25 0.25 2 0 
9 4.25 0.25 4 0 
21 0.25 0.75 0 0 
25 2.25 0.75 2 0 
29 4.25 0.75 4 0 
41 0.25 1.25 0 1 
45 2.25 1.25 2 1 
49 4.25 1.25 4 1 
61 0.25 1.75 0 1 
65 2.25 1.75 2 1 
69 4.25 1.75 4 1 
81 0.25 2.25 0 2 
85 2.25 2.25 2 2 
89 4.25 2.25 4 2 
101 0.25 2.75 0 2 
105 2.25 2.75 2 2 
109 4.25 2.75 4 2 
121 0.25 3.25 0 3 
125 2.25 3.25 2 3 
129 4.25 3.25 4 3 
141 0.25 3.75 0 3 
145 2.25 3.75 2 3 
149 4.25 3.75 4 3 
161 0.25 4.25 0 4 
165 2.25 4.25 2 4 
169 4.25 4.25 4 4 
181 0.25 4.75 0 4 
185 2.25 4.75 2 4 
189 4.25 4.75 4 4 
2 0.75 0.25 0 0 
6 2.75 0.25 2 0 
10 4.75 0.25 4 0 
22 0.75 0.75 0 0 
26 2.75 0.75 2 0 
30 4.75 0.75 4 0 
42 0.75 1.25 0 1 
46 2.75 1.25 2 1 
50 4.75 1.25 4 1 
62 0.75 1.75 0 1 
66 2.75 1.75 2 1 
70 4.75 1.75 4 1 
82 0.75 2.25 0 2 
86 2.75 2.25 2 2 
90 4.75 2.25 4 2 
102 0.75 2.75 0 2 
106 2.75 2.75 2 2 
110 4.75 2.75 4 2 
122 0.75 3.25 0 3 
126 2.75 3.25 2 3 
130 4.75 3.25 4 3 
142 0.75 3.75 0 3 
146 2.75 3.75 2 3 
150 4.75 3.75 4 3 
162 0.75 4.25 0 4 
166 2.75 4.25 2 4 
170 4.75 4.25 4 4 
182 0.75 4.75 0 4 
186 2.75 4.75 2 4 
190 4.75 4.75 4 4 
3 1.25 0.25 1 0 
7 3.25 0.25 3 0 
23 1.25 0.75 1 0 
27 3.25 0.75 3 0 
43 1.25 1.25 1 1 
47 3.25 1.25 3 1 
63 1.25 1.75 1 1 
67 3.25 1.75 3 1 
83 1.25 2.25 1 2 
87 3.25 2.25 3 2 
103 1.25 2.75 1 2 
107 3.25 2.75 3 2 
123 1.25 3.25 1 3 
127 3.25 3.25 3 3 
143 1.25 3.75 1 3 
147 3.25 3.75 3 3 
163 1.25 4.25 1 4 
167 3.25 4.25 3 4 
183 1.25 4.75 1 4 
187 3.25 4.75 3 4 
4 1.75 0.25 1 0 
8 3.75 0.25 3 0 
24 1.75 0.75 1 0 
28 3.75 0.75 3 0 
44 1.75 1.25 1 1 
48 3.75 1.25 3 1 
64 1.75 1.75 1 1 
68 3.75 1.75 3 1 
84 1.75 2.25 1 2 
88 3.75 2.25 3 2 
104 1.75 2.75 1 2 
108 3.75 2.75 3 2 
124 1.75 3.25 1 3 
128 3.75 3.25 3 3 
144 1.75 3.75 1 3 
148 3.75 3.75 3 3 
164 1.75 4.25 1 4 
168 3.75 4.25 3 4 
184 1.75 4.75 1 4 
188 3.75 4.75 3 4 
202 0.75 5.25 0 5 
206 2.75 5.25 2 5 
210 4.75 5.25 4 5 
222 0.75 5.75 0 5 
226 2.75 5.75 2 5 
230 4.75 5.75 4 5 
242 0.75 6.25 0 6 
246 2.75 6.25 2 6 
250 4.75 6.25 4 6 
262 0.75 6.75 0 6 
266 2.75 6.75 2 6 
270 4.75 6.75 4 6 
282 0.75 7.25 0 7 
286 2.75 7.25 2 7 
290 4.75 7.25 4 7 
302 0.75 7.75 0 7 
306 2.75 7.75 2 7 
310 4.75 7.75 4 7 
322 0.75 8.25 0 8 
326 2.75 8.25 2 8 
330 4.75 8.25 4 8 
342 0.75 8.75 0 8 
346 2.75 8.75 2 8 
350 4.75 8.75 4 8 
362 0.75 9.25 0 9 
366 2.75 9.25 2 9 
370 4.75 9.25 4 9 
382 0.75 9.75 0 9 
386 2.75 9.75 2 9 
390 4.75 9.75 4 9 
201 0.25 5.25 0 5 
205 2.25 5.25 2 5 
209 4.25 5.25 4 5 
221 0.25 5.75 0 5 
225 2.25 5.75 2 5 
229 4.25 5.75 4 5 
241 0.25 6.25 0 6 
245 2.25 6.25 2 6 
249 4.25 6.25 4 6 
261 0.25 6.75 0 6 
265 2.25 6.75 2 6 
269 4.25 6.75 4 6 
281 0.25 7.25 0 7 
285 2.25 7.25 2 7 
289 4.25 7.25 4 7 
301 0.25 7.75 0 7 
305 2.25 7.75 2 7 
309 4.25 7.75 4 7 
321 0.25 8.25 0 8 
325 2.25 8.25 2 8 
329 4.25 8.25 4 8 
341 0.25 8.75 0 8 
345 2.25 8.75 2 8 
349 4.25 8.75 4 8 
361 0.25 9.25 0 9 
365 2.25 9.25 2 9 
369 4.25 9.25 4 9 
381 0.25 9.75 0 9 
385 2.25 9.75 2 9 
389 4.25 9.75 4 9 
203 1.25 5.25 1 5 
207 3.25 5.25 3 5 
223 1.25 5.75 1 5 
227 3.25 5.75 3 5 
243 1.25 6.25 1 6 
247 3.25 6.25 3 6 
263 1.25 6.75 1 6 
267 3.25 6.75 3 6 
283 1.25 7.25 1 7 
287 3.25 7.25 3 7 
303 1.25 7.75 1 7 
307 3.25 7.75 3 7 
323 1.25 8.25 1 8 
327 3.25 8.25 3 8 
343 1.25 8.75 1 8 
347 3.25 8.75 3 8 
363 1.25 9.25 1 9 
367 3.25 9.25 3 9 
383 1.25 9.75 1 9 
387 3.25 9.75 3 9 
204 1.75 5.25 1 5 
208 3.75 5.25 3 5 
224 1.75 5.75 1 5 
228 3.75 5.75 3 5 
244 1.75 6.25 1 6 
248 3.75 6.25 3 6 
264 1.75 6.75 1 6 
268 3.75 6.75 3 6 
284 1.75 7.25 1 7 
288 3.75 7.25 3 7 
304 1.75 7.75 1 7 
308 3.75 7.75 3 7 
324 1.75 8.25 1 8 
328 3.75 8.25 3 8 
344 1.75 8.75 1 8 
348 3.75 8.75 3 8 
364 1.75 9.25 1 9 
368 3.75 9.25 3 9 
384 1.75 9.75 1 9 
388 3.75 9.75 3 9 
11 5.25 0.25 5 0 
15 7.25 0.25 7 0 
19 9.25 0.25 9 0 
31 5.25 0.75 5 0 
35 7.25 0.75 7 0 
39 9.25 0.75 9 0 
51 5.25 1.25 5 1 
55 7.25 1.25 7 1 
59 9.25 1.25 9 1 
71 5.25 1.75 5 1 
75 7.25 1.75 7 1 
79 9.25 1.75 9 1 
91 5.25 2.25 5 2 
95 7.25 2.25 7 2 
99 9.25 2.25 9 2 
111 5.25 2.75 5 2 
115 7.25 2.75 7 2 
119 9.25 2.75 9 2 
131 5.25 3.25 5 3 
135 7.25 3.25 7 3 
139 9.25 3.25 9 3 
151 5.25 3.75 5 3 
155 7.25 3.75 7 3 
159 9.25 3.75 9 3 
171 5.25 4.25 5 4 
175 7.25 4.25 7 4 
179 9.25 4.25 9 4 
191 5.25 4.75 5 4 
195 7.25 4.75 7 4 
199 9.25 4.75 9 4 
13 6.25 0.25 6 0 
17 8.25 0.25 8 0 
33 6.25 0.75 6 0 
37 8.25 0.75 8 0 
53 6.25 1.25 6 1 
57 8.25 1.25 8 1 
73 6.25 1.75 6 1 
77 8.25 1.75 8 1 
93 6.25 2.25 6 2 
97 8.25 2.25 8 2 
113 6.25 2.75 6 2 
117 8.25 2.75 8 2 
133 6.25 3.25 6 3 
137 8.25 3.25 8 3 
153 6.25 3.75 6 3 
157 8.25 3.75 8 3 
173 6.25 4.25 6 4 
177 8.25 4.25 8 4 
193 6.25 4.75 6 4 
197 8.25 4.75 8 4 
14 6.75 0.25 6 0 
18 8.75 0.25 8 0 
34 6.75 0.75 6 0 
38 8.75 0.75 8 0 
54 6.75 1.25 6 1 
58 8.75 1.25 8 1 
74 6.75 1.75 6 1 
78 8.75 1.75 8 1 
94 6.75 2.25 6 2 
98 8.75 2.25 8 2 
114 6.75 2.75 6 2 
118 8.75 2.75 8 2 
134 6.75 3.25 6 3 
138 8.75 3.25 8 3 
154 6.75 3.75 6 3 
158 8.75 3.75 8 3 
174 6.75 4.25 6 4 
178 8.75 4.25 8 4 
194 6.75 4.75 6 4 
198 8.75 4.75 8 4 
12 5.75 0.25 5 0 
16 7.75 0.25 7 0 
20 9.75 0.25 9 0 
32 5.75 0.75 5 0 
36 7.75 0.75 7 0 
40 9.75 0.75 9 0 
52 5.75 1.25 5 1 
56 7.75 1.25 7 1 
60 9.75 1.25 9 1 
72 5.75 1.75 5 1 
76 7.75 1.75 7 1 
80 9.75 1.75 9 1 
92 5.75 2.25 5 2 
96 7.75 2.25 7 2 
100 9.75 2.25 9 2 
112 5.75 2.75 5 2 
116 7.75 2.75 7 2 
120 9.75 2.75 9 2 
132 5.75 3.25 5 3 
136 7.75 3.25 7 3 
140 9.75 3.25 9 3 
152 5.75 3.75 5 3 
156 7.75 3.75 7 3 
160 9.75 3.75 9 3 
172 5.75 4.25 5 4 
176 7.75 4.25 7 4 
180 9.75 4.25 9 4 
192 5.75 4.75 5 4 
196 7.75 4.75 7 4 
200 9.75 4.75 9 4 
212 5.75 5.25 5 5 
216 7.75 5.25 7 5 
220 9.75 5.25 9 5 
232 5.75 5.75 5 5 
236 7.75 5.75 7 5 
240 9.75 5.75 9 5 
252 5.75 6.25 5 6 
256 7.75 6.25 7 6 
260 9.75 6.25 9 6 
272 5.75 6.75 5 6 
276 7.75 6.75 7 6 
280 9.75 6.75 9 6 
292 5.75 7.25 5 7 
296 7.75 7.25 7 7 
300 9.75 7.25 9 7 
312 5.75 7.75 5 7 
316 7.75 7.75 7 7 
320 9.75 7.75 9 7 
332 5.75 8.25 5 8 
336 7.75 8.25 7 8 
340 9.75 8.25 9 8 
352 5.75 8.75 5 8 
356 7.75 8.75 7 8 
360 9.75 8.75 9 8 
372 5.75 9.25 5 9 
376 7.75 9.25 7 9 
380 9.75 9.25 9 9 
392 5.75 9.75 5 9 
396 7.75 9.75 7 9 
400 9.75 9.75 9 9 
213 6.25 5.25 6 5 
217 8.25 5.25 8 5 
233 6.25 5.75 6 5 
237 8.25 5.75 8 5 
253 6.25 6.25 6 6 
257 8.25 6.25 8 6 
273 6.25 6.75 6 6 
277 8.25 6.75 8 6 
293 6.25 7.25 6 7 
297 8.25 7.25 8 7 
313 6.25 7.75 6 7 
317 8.25 7.75 8 7 
333 6.25 8.25 6 8 
337 8.25 8.25 8 8 
353 6.25 8.75 6 8 
357 8.25 8.75 8 8 
373 6.25 9.25 6 9 
377 8.25 9.25 8 9 
393 6.25 9.75 6 9 
397 8.25 9.75 8 9 
214 6.75 5.25 6 5 
218 8.75 5.25 8 5 
234 6.75 5.75 6 5 
238 8.75 5.75 8 5 
254 6.75 6.25 6 6 
258 8.75 6.25 8 6 
274 6.75 6.75 6 6 
278 8.75 6.75 8 6 
294 6.75 7.25 6 7 
298 8.75 7.25 8 7 
314 6.75 7.75 6 7 
318 8.75 7.75 8 7 
334 6.75 8.25 6 8 
338 8.75 8.25 8 8 
354 6.75 8.75 6 8 
358 8.75 8.75 8 8 
374 6.75 9.25 6 9 
378 8.75 9.25 8 9 
394 6.75 9.75 6 9 
398 8.75 9.75 8 9 
211 5.25 5.25 5 5 
215 7.25 5.25 7 5 
219 9.25 5.25 9 5 
231 5.25 5.75 5 5 
235 7.25 5.75 7 5 
239 9.25 5.75 9 5 
251 5.25 6.25 5 6 
255 7.25 6.25 7 6 
259 9.25 6.25 9 6 
271 5.25 6.75 5 6 
275 7.25 6.75 7 6 
279 9.25 6.75 9 6 
291 5.25 7.25 5 7 
295 7.25 7.25 7 7 
299 9.25 7.25 9 7 
311 5.25 7.75 5 7 
315 7.25 7.75 7 7 
319 9.25 7.75 9 7 
331 5.25 8.25 5 8 
335 7.25 8.25 7 8 
339 9.25 8.25 9 8 
351 5.25 8.75 5 8 
355 7.25 8.75 7 8 
359 9.25 8.75 9 8 
371 5.25 9.25 5 9 
375 7.25 9.25 7 9 
379 9.25 9.25 9 9 
391 5.25 9.75 5 9 
395 7.25 9.75 7 9 
399 9.25 9.75 9 9 
