ITEM: TIMESTEP
0
ITEM: NUMBER OF ATOMS
0
ITEM: BOX BOUNDS oo rr pp
0 10
0 10
-0.5 0.5
ITEM: ATOMS id x y v_xx v_yy 
ITEM: TIMESTEP
1000
ITEM: NUMBER OF ATOMS
438
ITEM: BOX BOUNDS oo rr pp
0 10
0 10
-0.5 0.5
ITEM: ATOMS id x y v_xx v_yy 
280883475 4.47722 1.6867 4 1 
107913245 0.763972 4.0607 0 4 
1904070294 0.79365 1.60238 0 1 
1404553228 1.42113 2.27279 1 2 
2073174532 1.44911 3.41359 1 3 
1394227622 0.653919 3.24022 0 3 
1673007385 1.05342 2.4274 1 2 
249595918 1.44512 0.0435559 1 0 
358777148 3.82929 0.450571 3 0 
1084241343 4.41991 0.913509 4 0 
1412688605 1.27947 0.438525 1 0 
1812816698 3.58723 0.844482 3 0 
160880066 2.55296 1.79583 2 1 
371451794 1.5499 4.00246 1 4 
1674702376 3.44471 1.60942 3 1 
404488848 2.7958 1.52535 2 1 
1336952979 0.503643 2.80338 0 2 
67328697 2.65152 2.51641 2 2 
147385466 0.0827808 0.658283 0 0 
396123560 3.34483 1.34813 3 1 
678462660 1.09839 0.897357 1 0 
287610440 0.637146 2.16024 0 2 
435085997 0.185118 3.70292 0 3 
591665415 2.37066 0.965287 2 0 
1793752599 1.39204 0.615485 1 0 
301038844 0.323269 3.91266 0 3 
797213468 1.3937 4.90442 1 4 
346808333 0.84181 3.13052 0 3 
375176250 3.9807 1.88917 3 1 
784223365 3.2181 1.13121 3 1 
503141285 1.2658 4.66477 1 4 
2057852084 2.20059 2.81586 2 2 
680317506 1.25964 3.99644 1 3 
1590069470 3.52758 2.05575 3 2 
787801199 0.924842 1.6004 0 1 
544424758 4.81787 1.34219 4 1 
1567765916 1.42361 2.86305 1 2 
1505874093 1.41103 0.65808 1 0 
522715468 0.150103 3.49625 0 3 
2015757360 0.0413607 1.5162 0 1 
452689789 0.145914 2.09118 0 2 
613971293 0.673863 3.94734 0 3 
1202032644 2.93934 1.40519 2 1 
1208688652 3.63789 1.82487 3 1 
893258147 0.345197 3.99467 0 3 
1535253329 1.96121 3.92464 1 3 
693497156 0.700649 0.395244 0 0 
181173089 0.394234 4.5918 0 4 
1861662335 1.23095 1.83106 1 1 
985444129 1.3739 3.72429 1 3 
1237760697 0.223 4.0106 0 4 
942763503 4.5138 1.44212 4 1 
460736436 2.26207 0.164481 2 0 
429743339 1.46012 0.238051 1 0 
1993801030 1.3943 3.11241 1 3 
1893363409 1.25028 2.49855 1 2 
1259174916 0.961762 1.44912 0 1 
1524599944 2.17752 3.13215 2 3 
260574639 1.31645 3.43912 1 3 
2108646527 0.489893 4.90269 0 4 
1060519962 1.82542 0.899374 1 0 
1943648987 1.18355 1.63667 1 1 
1744868439 1.97904 4.18635 1 4 
1647696674 2.77965 2.56442 2 2 
249318979 3.78123 0.0892195 3 0 
786621301 4.65928 1.07632 4 1 
2106011213 4.05371 1.63063 4 1 
1915475674 2.97562 2.73559 2 2 
2105202429 0.79473 1.27689 0 1 
1918242379 3.12027 1.53236 3 1 
1033509649 0.0262886 4.14174 0 4 
846439902 2.50865 0.159408 2 0 
741031881 1.60031 0.145526 1 0 
1909245126 1.86329 2.75088 1 2 
1683295775 4.90211 0.418896 4 0 
128845728 4.89254 0.861107 4 0 
995134752 2.06986 1.51977 2 1 
1513425517 0.231582 3.67139 0 3 
1583194684 0.910075 2.98799 0 2 
1384918141 0.315276 2.36875 0 2 
362051114 1.72536 1.28282 1 1 
1169651975 0.696533 0.294545 0 0 
1071375494 2.35899 2.2195 2 2 
1821008648 4.59526 0.441728 4 0 
1450031875 2.02367 0.230483 2 0 
1367930476 1.8621 1.94695 1 1 
2121021344 0.730546 2.51719 0 2 
665152084 1.53352 4.63354 1 4 
1799697923 0.859617 4.13219 0 4 
216411674 4.09175 0.487093 4 0 
1137093057 4.74333 0.653511 4 0 
559566730 3.48519 1.71285 3 1 
5599408 4.56356 0.464434 4 0 
1592938208 0.907143 3.49378 0 3 
485198888 1.93613 3.91405 1 3 
1607476670 3.32721 0.290323 3 0 
1209472133 0.416388 0.720434 0 0 
688234653 0.580447 1.30437 0 1 
860016122 0.566562 4.48215 0 4 
979722803 1.8065 1.69517 1 1 
1527698975 1.75266 1.4211 1 1 
1753311120 1.81003 2.67563 1 2 
1357401048 3.12954 2.37228 3 2 
1715461990 0.730359 2.80627 0 2 
661263412 1.33507 4.63778 1 4 
1336577898 1.56022 2.03584 1 2 
1503420058 4.23197 1.30536 4 1 
676074257 2.94623 2.63474 2 2 
634887981 1.3718 2.32718 1 2 
2060040284 0.794362 4.35796 0 4 
1955399822 1.53313 1.26019 1 1 
453145583 3.26073 0.0441627 3 0 
1539561832 0.725022 4.56026 0 4 
1900882486 2.35855 0.76026 2 0 
1224427383 0.786187 1.32065 0 1 
1718846400 0.449382 4.75009 0 4 
41961551 2.68506 2.25285 2 2 
2014387158 0.125003 3.3981 0 3 
1001793862 0.638399 1.23846 0 1 
920524227 2.19664 1.67798 2 1 
1067145380 2.40917 2.62256 2 2 
130213005 3.07947 1.2774 3 1 
681354917 0.370987 3.08308 0 3 
630384676 0.201841 4.42762 0 4 
1845295078 1.35269 0.310245 1 0 
1810457791 1.07313 3.77521 1 3 
1905389758 0.0916283 1.97932 0 1 
929829624 0.792356 2.88231 0 2 
2062171337 0.738356 3.4219 0 3 
801991911 4.63446 1.60944 4 1 
1009362080 1.67344 1.07747 1 1 
980649605 2.70838 0.223783 2 0 
181005310 1.20218 0.961996 1 0 
1745452327 2.05366 3.91824 2 3 
1403371926 0.647139 3.8136 0 3 
1528553154 0.424155 0.057762 0 0 
2052674303 0.441425 2.93493 0 2 
440289992 0.15734 1.94251 0 1 
1527621947 1.05469 2.45105 1 2 
641995967 0.951193 2.85376 0 2 
1657142652 0.994592 2.18991 0 2 
2045233755 0.722288 0.496634 0 0 
1267481798 0.143492 1.43101 0 1 
1319336207 0.811476 3.47612 0 3 
116380146 0.781382 1.39273 0 1 
877536874 1.15404 4.66308 1 4 
1811294424 0.207615 1.10122 0 1 
1506259607 0.207897 2.34685 0 2 
575781283 2.94981 9.40345 2 9 
1312972255 4.05708 9.06194 4 9 
882771011 1.50458 7.02421 1 7 
907967491 1.57667 6.39163 1 6 
489914609 0.254696 9.45736 0 9 
736224621 1.6914 8.59484 1 8 
1410090691 3.66874 9.28586 3 9 
1011446698 4.42712 9.3338 4 9 
1673438700 2.3985 8.41138 2 8 
679853985 3.57602 8.89786 3 8 
1403996734 0.972719 9.98433 0 9 
1590205593 3.33149 8.29853 3 8 
975041675 1.85029 5.29382 1 5 
722067313 4.32296 8.26081 4 8 
829792240 1.18232 7.25857 1 7 
664019368 0.0968887 8.56707 0 8 
210187313 0.560456 5.35773 0 5 
514913995 1.70747 7.80792 1 7 
1581511052 2.78909 7.59816 2 7 
786431148 2.91323 8.66948 2 8 
662055982 2.87591 7.76508 2 7 
2012302261 0.492911 5.5134 0 5 
1362923876 0.566146 9.84548 0 9 
1967537247 3.26218 9.58604 3 9 
873335948 4.84334 8.26567 4 8 
1350026349 1.40597 6.46409 1 6 
502879548 1.19426 7.5307 1 7 
922018717 1.83348 9.21268 1 9 
218153573 1.19704 5.66513 1 5 
1317261884 4.97828 8.70208 4 8 
1755332908 1.22346 8.95083 1 8 
2072052837 0.646897 9.49828 0 9 
262481870 4.58568 8.00837 4 8 
1691503440 4.86444 9.94796 4 9 
1514473040 2.76462 8.17413 2 8 
1243562521 2.35952 9.5966 2 9 
922420457 2.00836 5.84547 2 5 
977680975 2.38609 9.27713 2 9 
2136514431 3.15839 7.91197 3 7 
1557568856 0.159714 9.72658 0 9 
439333701 0.395604 8.18453 0 8 
1907397571 0.556153 8.11128 0 8 
1938118755 1.41568 6.17697 1 6 
1169576880 2.25834 6.88561 2 6 
1211274443 0.398369 5.31132 0 5 
1359032120 2.85121 8.64535 2 8 
1387109371 1.40406 7.96842 1 7 
1994300872 1.64507 6.72631 1 6 
1250637101 1.13247 7.07677 1 7 
1269702111 0.325097 6.59747 0 6 
158519200 0.482993 7.91823 0 7 
892265694 1.63073 6.31824 1 6 
850740649 4.24825 9.45414 4 9 
806691185 0.449239 6.30587 0 6 
1790477304 2.16241 8.63271 2 8 
146420043 0.210205 7.74047 0 7 
300952429 2.47102 7.77154 2 7 
157067684 3.5599 7.99129 3 7 
932695093 1.32502 6.11462 1 6 
1148756399 2.99687 7.5216 2 7 
656446512 1.4845 7.24819 1 7 
512936433 1.47106 7.55568 1 7 
1699581644 3.35305 8.10857 3 8 
986523121 0.478955 6.03268 0 6 
87969910 1.06697 6.40862 1 6 
1175478659 2.30777 7.98595 2 7 
1636893859 3.94913 9.47001 3 9 
538876103 4.16374 7.97319 4 7 
919065497 1.05655 9.53396 1 9 
1319192482 1.93314 7.02098 1 7 
825635886 1.37263 7.49509 1 7 
451225147 4.88745 8.84354 4 8 
1459843034 2.5759 8.75125 2 8 
834644634 1.52703 9.08998 1 9 
1227288235 1.98456 6.7809 1 6 
340844672 0.586429 5.44809 0 5 
1190334324 1.8301 9.4819 1 9 
12541033 2.45729 9.99971 2 9 
1970070762 1.52588 6.82074 1 6 
2018104498 0.106158 5.95611 0 5 
1948774045 0.0353033 8.4784 0 8 
591635895 2.06548 9.45088 2 9 
143103854 2.48668 9.97284 2 9 
199330568 2.08324 8.18826 2 8 
1597739756 2.43068 7.8703 2 7 
926069391 0.872994 7.40181 0 7 
299500666 0.548729 5.49174 0 5 
1605276105 0.785377 9.18618 0 9 
775663154 0.82777 7.21881 0 7 
536656279 4.20399 8.94507 4 8 
2045302750 1.47385 7.23026 1 7 
793132147 0.100608 5.8754 0 5 
1002585088 3.74312 9.04215 3 9 
1760276746 2.65835 7.64715 2 7 
1838968761 0.661328 6.68986 0 6 
691977586 3.83991 7.87876 3 7 
1351992119 1.59991 7.63157 1 7 
582432624 0.0535233 8.75133 0 8 
1119705968 4.31464 8.44238 4 8 
1792375716 0.0353079 7.48108 0 7 
1171038953 1.97763 7.61361 1 7 
1509606602 2.83833 8.95029 2 8 
1722145083 1.72938 5.12859 1 5 
300772797 2.78929 9.30938 2 9 
1752972887 3.9742 8.34129 3 8 
891584039 1.19992 9.64093 1 9 
1795723480 0.450659 8.92857 0 8 
256399800 0.855964 5.5112 0 5 
1823117389 1.44807 6.3167 1 6 
314866384 1.68159 8.63448 1 8 
960292845 2.53662 7.33276 2 7 
1839019680 2.55567 9.27685 2 9 
121124773 0.097734 7.54009 0 7 
1862756287 0.609599 5.64924 0 5 
472276323 2.98142 8.65996 2 8 
564669284 1.95884 8.57837 1 8 
1303716564 1.00129 6.24948 1 6 
131293681 3.27305 7.70233 3 7 
72760566 1.64127 8.15919 1 8 
1054747962 1.48489 9.89442 1 9 
1216523574 0.396503 5.99145 0 5 
1471972992 1.57952 8.53143 1 8 
623421739 0.595701 6.08123 0 6 
1802925687 1.03384 6.82273 1 6 
1782132808 0.931054 5.5543 0 5 
243993477 3.6335 8.53791 3 8 
2047185773 1.9246 6.23171 1 6 
2030413898 1.07646 5.77187 1 5 
69123815 1.32589 5.43239 1 5 
1248095760 1.84536 5.76129 1 5 
198823360 1.22714 6.55106 1 6 
2063705645 1.29689 8.92814 1 8 
1318936627 3.91333 8.78373 3 8 
1265845149 3.59946 7.7369 3 7 
1253926419 1.02878 5.91898 1 5 
137449123 3.07833 8.09745 3 8 
1160112810 0.0347663 6.63638 0 6 
762624028 4.45046 9.85656 4 9 
251361635 0.135489 6.56054 0 6 
1049737717 2.55876 9.02421 2 9 
1764884975 0.940724 7.54345 0 7 
655412344 1.10248 7.06403 1 7 
763155764 0.255058 5.48164 0 5 
158504681 0.965364 8.16394 0 8 
879399600 1.4671 6.06854 1 6 
1006735179 1.64756 9.97483 1 9 
548243246 3.20968 7.87835 3 7 
1849811013 1.66333 5.4292 1 5 
1865241376 4.47938 9.9827 4 9 
1984257235 2.13102 8.18667 2 8 
562479287 0.308705 6.98243 0 6 
677871221 3.88879 8.34167 3 8 
137529749 1.60464 8.90679 1 8 
1332279381 2.92978 9.35785 2 9 
1472750325 4.44911 8.56286 4 8 
1028451105 2.59783 9.39232 2 9 
552162790 0.417244 6.64276 0 6 
605269414 0.0797865 9.30211 0 9 
1716790595 0.956002 6.79523 0 6 
1893489602 1.73831 7.70855 1 7 
1288511639 0.511012 6.99513 0 6 
1667752634 0.823025 7.03012 0 7 
1652268340 1.92014 7.4286 1 7 
425544210 1.59377 9.97518 1 9 
1644666362 1.473 6.00512 1 6 
1213932467 1.81093 9.9528 1 9 
599939963 0.930278 7.661 0 7 
780614100 3.20831 8.22724 3 8 
1951615391 2.24295 9.70136 2 9 
1444736820 1.45778 6.49578 1 6 
900808953 2.08006 8.8707 2 8 
178239933 2.32854 7.94818 2 7 
573411486 1.81507 5.40149 1 5 
1071715932 0.715124 6.22215 0 6 
837765235 2.04093 6.37993 2 6 
2006705695 0.983765 7.66856 0 7 
1754045888 1.63623 5.0894 1 5 
631635475 0.616823 5.8743 0 5 
838305541 0.932992 5.18422 0 5 
1822244916 0.751682 7.53501 0 7 
935421246 0.349373 6.82365 0 6 
234337510 1.53327 9.04211 1 9 
1387680522 1.68377 7.14707 1 7 
1696689186 1.57451 5.61001 1 5 
1682287372 0.0301533 5.04348 0 5 
8800220 0.0740338 6.11691 0 6 
23901888 0.101174 6.79422 0 6 
502600220 0.062189 8.64347 0 8 
1760003319 0.0547813 6.33997 0 6 
1550851714 7.10564 1.01294 7 1 
1186816971 9.58062 2.00438 9 2 
1238007789 5.80259 1.62583 5 1 
1448086081 9.76722 0.198047 9 0 
2026064857 7.11356 1.72561 7 1 
1389680004 6.21018 0.154537 6 0 
1534556917 7.17799 2.92263 7 2 
1901411276 9.08163 3.47108 9 3 
102747503 8.09622 2.05594 8 2 
1767683919 8.61634 0.0621531 8 0 
1685472913 5.7539 2.01749 5 2 
348320224 9.64099 0.555601 9 0 
577915826 5.57838 1.75553 5 1 
588052149 9.02328 2.04301 9 2 
1561384670 6.37113 1.05748 6 1 
1222333056 6.44635 1.098 6 1 
1777708255 8.43367 2.09429 8 2 
998371338 7.59211 0.113752 7 0 
764567735 5.42223 1.10816 5 1 
1073826722 7.20452 2.32935 7 2 
1337279747 6.25138 0.260935 6 0 
1172119385 8.18389 3.46664 8 3 
2086676689 9.77631 0.898002 9 0 
614574983 9.37067 2.29158 9 2 
115793815 5.78195 0.887798 5 0 
1096072322 8.68077 4.55314 8 4 
716967733 7.6418 1.00732 7 1 
1609394871 9.15408 0.736114 9 0 
154042407 6.84547 2.6306 6 2 
352197194 9.63692 2.50215 9 2 
251276941 9.76757 0.63636 9 0 
267853608 5.76147 1.26196 5 1 
1915241042 6.26118 0.148654 6 0 
2106423577 5.49395 0.122224 5 0 
189190386 5.16866 1.28352 5 1 
64693380 7.11402 0.605945 7 0 
2066041916 7.84207 2.00687 7 2 
979166626 7.53831 0.99643 7 0 
701531561 7.70948 0.871356 7 0 
1085045685 7.03192 1.89347 7 1 
1965870634 9.92612 4.75456 9 4 
75633444 8.02122 1.0192 8 1 
1267252521 7.57076 2.26669 7 2 
1123412387 7.00465 2.66715 7 2 
358729959 6.98831 1.69519 6 1 
122336373 9.58594 1.10654 9 1 
1878689265 6.3329 2.05276 6 2 
1095219415 7.52415 2.43826 7 2 
204369320 9.70928 2.70026 9 2 
478241960 6.85014 1.16814 6 1 
575410858 7.62721 0.945347 7 0 
72612426 9.70326 2.19128 9 2 
87823654 9.8438 4.80177 9 4 
1983752007 5.32149 1.55909 5 1 
76622465 5.64616 0.30703 5 0 
732418786 5.17025 0.517163 5 0 
734842058 5.02971 0.505467 5 0 
924868297 8.30831 9.00839 8 9 
2046025930 8.86692 9.62774 8 9 
1352451296 5.4791 9.05194 5 9 
502307542 7.81189 8.78229 7 8 
1575670292 8.95293 7.06786 8 7 
319997564 6.96202 9.73474 6 9 
813131954 5.52244 8.80746 5 8 
439092369 6.32088 7.75909 6 7 
1545741602 5.73414 8.4491 5 8 
277274762 7.98922 9.88443 7 9 
1980661050 7.82968 6.6474 7 6 
520524485 8.21296 8.77594 8 8 
469738337 7.8236 9.99041 7 9 
1818114362 8.24376 9.41804 8 9 
1503969062 8.33136 9.723 8 9 
26564651 5.03132 8.84881 5 8 
1131757045 6.27787 9.5898 6 9 
1840702798 7.04473 8.89071 7 8 
53861198 8.84019 6.90578 8 6 
1249848680 6.83569 7.57736 6 7 
164999006 9.22821 7.66094 9 7 
251794053 6.94407 8.71075 6 8 
221085582 8.84533 7.39154 8 7 
1220548349 6.28921 8.79863 6 8 
173570627 8.42707 9.97739 8 9 
641647246 7.09753 9.7202 7 9 
1983333390 8.03248 6.74143 8 6 
2106643786 6.84351 8.20029 6 8 
34296746 7.2813 7.76844 7 7 
929760887 5.19525 8.33987 5 8 
347975623 6.85218 9.1162 6 9 
312832747 8.39729 8.75269 8 8 
1803466477 8.06588 8.5066 8 8 
1079098839 7.72149 9.63738 7 9 
2091848609 8.7314 9.18584 8 9 
429352955 8.79604 9.08302 8 9 
850628176 6.9449 9.94557 6 9 
1620181331 6.67864 8.67526 6 8 
28684596 6.73404 8.43666 6 8 
349162898 7.90659 8.47663 7 8 
2029453257 9.50093 6.57584 9 6 
2035175174 5.72216 8.25979 5 8 
1101484846 7.07937 8.01595 7 8 
1695367893 5.40981 8.66174 5 8 
