ITEM: TIMESTEP
0
ITEM: NUMBER OF ATOMS
0
ITEM: BOX BOUNDS oo rr pp
0 10
0 10
-0.5 0.5
ITEM: ATOMS id x y v_xx v_yy 
ITEM: TIMESTEP
1000
ITEM: NUMBER OF ATOMS
438
ITEM: BOX BOUNDS oo rr pp
0 10
0 10
-0.5 0.5
ITEM: ATOMS id x y v_xx v_yy 
1547689587 5.06255 9.20064 5 9 
339206717 8.27886 2.23018 8 2 
750008951 3.25426 1.48499 3 1 
803713808 5.33447 9.32793 5 9 
1644667221 1.08466 8.05557 1 8 
2127245589 3.96569 8.22058 3 8 
1666759169 2.89808 9.10777 2 9 
1104513707 0.49003 0.478875 0 0 
1912801477 2.80759 7.51294 2 7 
1069982172 2.19854 3.63935 2 3 
344321210 7.06 8.00978 7 8 
756690217 0.858118 7.63978 0 7 
279570137 0.751612 8.1945 0 8 
53661499 1.17818 2.70092 1 2 
930300453 1.06389 9.07933 1 9 
1547082889 9.53338 6.7981 9 6 
1027212855 0.227159 6.38182 0 6 
209885222 0.162807 9.77882 0 9 
374623494 1.345 0.744155 1 0 
1334687588 7.96823 0.940771 7 0 
1662119823 6.6771 2.10952 6 2 
726389015 0.872005 7.81629 0 7 
1000770958 1.80727 9.8177 1 9 
519682925 0.115639 0.284943 0 0 
151294910 4.57587 8.58627 4 8 
452960870 3.94807 9.71551 3 9 
1130107174 0.451059 7.26328 0 7 
2052520721 1.9216 8.512 1 8 
346294846 3.75815 0.955253 3 0 
507911587 2.93371 0.950036 2 0 
20297545 6.13562 8.13412 6 8 
1049971030 0.209092 8.33761 0 8 
1858958286 4.10279 9.52217 4 9 
1538043252 1.08992 5.00188 1 5 
1444907846 1.86748 4.68417 1 4 
286977220 2.05326 9.62074 2 9 
788756348 1.81502 8.4918 1 8 
955949012 1.14443 0.00558241 1 0 
844134693 0.24024 4.24484 0 4 
1546006333 5.43924 8.96053 5 8 
879338005 1.82851 9.3706 1 9 
1026957573 0.469941 7.47912 0 7 
1190009981 0.53772 9.55581 0 9 
1962289877 2.7204 9.42622 2 9 
986300109 2.53127 3.18598 2 3 
1218577790 0.637142 4.09566 0 4 
1930686215 1.69852 3.17372 1 3 
767261315 0.969502 6.13961 0 6 
1899531388 4.09019 0.545706 4 0 
1384918141 2.87005 1.17412 2 1 
1680881093 0.66505 6.3477 0 6 
429696509 0.559152 3.93722 0 3 
539858675 9.11298 0.443821 9 0 
1060070332 1.31307 5.71681 1 5 
559691389 7.62185 3.42373 7 3 
1092048717 3.61711 7.71234 3 7 
1098075383 0.306782 0.484903 0 0 
2070966906 0.674298 5.55204 0 5 
591265991 1.17409 0.611732 1 0 
501251611 0.04701 8.72727 0 8 
1455585727 9.15699 5.68967 9 5 
1109958563 4.03451 9.83641 4 9 
688234653 3.93341 0.751336 3 0 
661348515 6.87316 8.73484 6 8 
1669619036 8.40477 2.35756 8 2 
683390115 2.39173 9.96855 2 9 
51555434 5.27023 9.48723 5 9 
1902695110 1.69046 8.15772 1 8 
1411603694 0.64358 4.68726 0 4 
1091479991 0.641729 1.63482 0 1 
767118258 1.22222 4.26441 1 4 
389441471 2.14792 9.32007 2 9 
991647773 0.753309 6.10934 0 6 
1126656327 0.606058 3.89811 0 3 
112944443 0.7106 1.73624 0 1 
1737695360 9.73907 8.01925 9 8 
759987348 0.668784 2.24454 0 2 
1639522127 4.12379 9.09735 4 9 
802346926 0.252206 5.7119 0 5 
84904607 0.508446 9.99375 0 9 
1574720664 0.479113 9.72677 0 9 
315974247 1.48786 0.926225 1 0 
642484629 5.14423 8.24805 5 8 
253661960 3.05747 8.12397 3 8 
226152376 9.17651 8.03851 9 8 
87969910 1.44573 1.16792 1 1 
1625126436 3.88144 8.11673 3 8 
584556572 0.988534 0.492441 0 0 
622673277 8.20888 9.46123 8 9 
1927731943 1.20532 1.93023 1 1 
1524599944 9.98264 3.75754 9 3 
1220753004 4.14341 8.11691 4 8 
293033648 0.876028 5.96654 0 5 
1671626806 1.88206 5.96497 1 5 
902021255 2.40018 1.76146 2 1 
210422892 7.1987 8.5601 7 8 
300237745 4.95224 1.46278 4 1 
2054102072 2.78162 9.66221 2 9 
1561566927 9.91359 6.84656 9 6 
484798335 4.41838 8.03676 4 8 
273576922 8.19606 7.42692 8 7 
1615708378 3.03933 1.25222 3 1 
2034180124 7.5507 8.22405 7 8 
939734871 2.39875 6.764 2 6 
2144418764 4.75943 9.03025 4 9 
62992189 1.67761 0.65751 1 0 
1292454436 0.802226 4.00526 0 4 
473036977 2.01572 4.50366 2 4 
1480421436 0.997495 8.8433 0 8 
1549662781 3.71484 0.512321 3 0 
1708802757 1.75348 8.44979 1 8 
132404223 8.77203 8.17173 8 8 
825666415 8.50859 9.92346 8 9 
581737374 4.45552 7.98246 4 7 
1212649370 1.17323 9.83176 1 9 
1264012920 1.63429 9.70602 1 9 
1850257126 2.18362 7.45304 2 7 
600087704 7.11015 0.564736 7 0 
206524193 1.72309 4.126 1 4 
160893235 0.955939 8.05728 0 8 
665772750 2.77417 8.18017 2 8 
301425445 1.94516 1.74851 1 1 
1136539407 9.65871 5.44417 9 5 
218480650 6.08782 9.17582 6 9 
769627692 2.3993 2.31213 2 2 
119314088 8.02041 7.13036 8 7 
1088907082 0.0475927 7.07356 0 7 
1425143093 3.81742 9.69753 3 9 
1645496788 1.20549 9.3802 1 9 
1592640141 6.80102 9.39607 6 9 
811063754 3.64813 8.29419 3 8 
604590676 0.0543785 1.53653 0 1 
808274769 2.97417 8.07863 2 8 
1379332399 3.30111 0.903266 3 0 
72994914 1.79879 1.10594 1 1 
611176833 1.62921 7.02899 1 7 
1982936425 5.00851 8.5115 5 8 
1448924364 1.9497 7.80966 1 7 
1888609355 1.47881 7.02232 1 7 
1231232609 0.644405 3.82559 0 3 
538871258 7.27211 8.69209 7 8 
1435474380 0.109714 8.70527 0 8 
1870809391 1.91306 6.4232 1 6 
329740408 0.833558 6.52919 0 6 
41920448 2.61516 6.99197 2 6 
1776871505 2.33247 8.94842 2 8 
822952590 6.47829 9.20373 6 9 
1338156178 3.77709 8.87582 3 8 
193763375 6.57499 0.483356 6 0 
1863354666 1.12355 1.93777 1 1 
109768695 1.67861 8.14779 1 8 
1064273460 3.69539 1.17629 3 1 
90703655 8.58194 8.93073 8 8 
1437414285 3.08499 0.98233 3 0 
267853608 4.2575 0.88705 4 0 
1603235804 1.3105 2.67425 1 2 
946463680 6.34365 0.544259 6 0 
62456763 6.46331 0.128679 6 0 
486253047 0.190907 1.85424 0 1 
1167202890 2.05537 7.70957 2 7 
1418837087 8.60145 4.25559 8 4 
1781988991 4.43777 1.88739 4 1 
1673175391 3.34036 2.38159 3 2 
1531233057 3.63494 1.09481 3 1 
1147670822 5.0747 9.14217 5 9 
1166672741 0.637822 9.34573 0 9 
1810238045 5.15743 8.68381 5 8 
601874208 2.26191 0.503977 2 0 
1625386907 8.3015 1.93661 8 1 
1555769866 2.36672 0.238536 2 0 
1488206648 1.29729 2.16155 1 2 
330462400 1.45007 5.23171 1 5 
1046183565 2.64031 9.67951 2 9 
317789951 0.70166 0.946247 0 0 
1523966419 0.213449 8.42439 0 8 
1680565806 2.27441 8.69181 2 8 
2081887979 2.21244 3.18179 2 3 
419301473 0.606433 3.27573 0 3 
677990853 0.242467 8.31479 0 8 
794751558 8.14719 6.6436 8 6 
795496423 0.00813762 1.6455 0 1 
1513984644 9.38827 7.00509 9 7 
777304488 0.414052 1.66897 0 1 
4288020 0.992834 2.69213 0 2 
1800226846 4.46835 0.847272 4 0 
2075512622 0.0716663 3.72419 0 3 
936178698 9.92658 8.08929 9 8 
3421598 5.20188 8.91505 5 8 
1881877975 1.61787 5.95918 1 5 
1608230956 1.66123 0.224984 1 0 
630744854 4.03381 1.74845 4 1 
12387117 2.50425 7.79189 2 7 
1145011542 4.00494 0.0793525 4 0 
1536419103 1.2048 4.30445 1 4 
2012528352 1.72988 8.60271 1 8 
824311724 5.30352 1.07735 5 1 
635248194 7.30107 9.72191 7 9 
1753493322 0.921272 7.07098 0 7 
1100180804 1.04127 4.92212 1 4 
557284719 1.79027 2.59655 1 2 
325467909 1.55378 6.91026 1 6 
1392550970 7.66825 8.70374 7 8 
872310161 2.19575 0.257757 2 0 
981522340 9.55052 1.01493 9 1 
832549486 5.81465 9.14587 5 9 
1142817073 2.81351 1.30069 2 1 
28407182 0.75664 7.51171 0 7 
867650332 2.2215 0.395016 2 0 
593183370 0.656899 5.68463 0 5 
1026989184 2.14761 9.88481 2 9 
1711682489 1.41863 0.478367 1 0 
908145530 5.00146 9.27639 5 9 
2134155315 4.49018 8.06647 4 8 
956716849 0.0948174 8.08391 0 8 
3581199 3.62748 7.98516 3 7 
1672058390 3.72744 0.236943 3 0 
675495690 8.04646 7.68835 8 7 
668588622 0.64239 8.83363 0 8 
668930596 1.16918 0.0588534 1 0 
2059099842 0.695899 8.65216 0 8 
1287992367 3.61117 2.26386 3 2 
1207298901 1.24657 0.880785 1 0 
1792778623 5.58842 0.708806 5 0 
1239582463 2.88304 2.40314 2 2 
2073960702 3.51901 0.227092 3 0 
332111567 0.272478 4.48963 0 4 
10335544 5.69184 0.966461 5 0 
1984624311 6.65521 9.66878 6 9 
648105281 1.94589 5.45048 1 5 
210097640 0.231925 7.9204 0 7 
829992033 0.635407 7.80995 0 7 
510152411 1.65616 5.80782 1 5 
1895027232 1.52145 4.37483 1 4 
630882263 2.50974 1.78375 2 1 
1639034558 3.5086 9.79361 3 9 
1571806241 1.8826 4.26002 1 4 
1880099027 2.21752 1.60341 2 1 
1797289294 0.414902 1.4825 0 1 
73350183 4.40803 8.34237 4 8 
1983630432 1.68547 7.7464 1 7 
236572641 0.884355 5.38819 0 5 
271736164 6.92741 8.38807 6 8 
1557347682 8.74432 1.48898 8 1 
1195882593 0.706059 0.180062 0 0 
1115986915 2.02636 0.00645816 2 0 
1252678802 5.90434 9.87753 5 9 
1484762204 1.91101 4.78367 1 4 
791642343 9.2252 9.03777 9 9 
123772373 0.299942 9.02334 0 9 
1539243828 0.976778 4.63661 0 4 
607345739 0.719902 1.2022 0 1 
40361070 5.08709 8.33081 5 8 
134379628 9.22068 6.81005 9 6 
1357694480 2.82152 1.86142 2 1 
104964821 1.56823 9.68368 1 9 
1073020634 1.67243 4.42267 1 4 
1332396421 3.58557 7.87219 3 7 
1124861559 7.69082 1.45925 7 1 
9208122 0.299512 5.07685 0 5 
1755258789 1.00576 4.82395 1 4 
1892431113 0.223361 2.7451 0 2 
2037839432 2.1156 0.178536 2 0 
550827951 0.34902 1.8432 0 1 
745295252 0.467179 2.28442 0 2 
1105846762 6.5311 8.78026 6 8 
827120476 2.10834 9.5993 2 9 
282358432 0.303676 0.662687 0 0 
716144865 0.00358526 8.13181 0 8 
873663087 0.503255 3.44837 0 3 
1423023209 1.55717 0.179792 1 0 
1855218054 1.01669 3.85687 1 3 
1008149295 4.54344 1.43063 4 1 
1586283759 9.95523 7.13589 9 7 
2070228567 1.80138 2.11791 1 2 
263889903 2.14415 0.293961 2 0 
1339035764 3.42357 7.71576 3 7 
838770491 5.479 1.93932 5 1 
1193002516 0.448685 2.91122 0 2 
1062671942 0.401495 3.09254 0 3 
313167248 2.43113 2.32177 2 2 
865869682 1.04314 9.63058 1 9 
2112147213 0.745146 6.19235 0 6 
1028923996 0.264754 4.89343 0 4 
1184407363 5.84868 0.25085 5 0 
196102172 3.57541 1.86582 3 1 
1860149390 6.71832 1.18088 6 1 
52443225 1.01986 0.0809564 1 0 
823745364 2.40325 7.14018 2 7 
769927779 6.72171 1.69777 6 1 
1517002245 3.92635 1.06839 3 1 
187016344 1.95683 2.56728 1 2 
692205142 1.06318 4.87144 1 4 
1599991644 5.87749 0.642488 5 0 
2146277583 8.79864 8.20222 8 8 
1592848881 2.90374 0.226437 2 0 
258290068 5.53703 9.01856 5 9 
972386601 1.54945 0.527992 1 0 
1086824010 2.00504 5.37915 2 5 
513090644 0.502367 5.83621 0 5 
449807554 1.57609 2.94897 1 2 
741705637 1.29006 6.36112 1 6 
1187035213 1.72099 8.19632 1 8 
462088289 1.55398 8.16582 1 8 
601467453 1.48788 4.46453 1 4 
903750758 9.38182 1.47128 9 1 
1973569187 1.95155 2.70508 1 2 
1574492470 3.15434 1.92931 3 1 
910783606 5.25983 1.30434 5 1 
411515657 1.97019 5.16411 1 5 
411931348 0.442979 7.58319 0 7 
2040123315 4.59104 1.96604 4 1 
264469133 3.55452 0.0784773 3 0 
1510850577 4.0888 8.74071 4 8 
1282192737 0.45469 2.93377 0 2 
290564944 7.00365 9.43515 7 9 
932865863 1.96504 0.7475 1 0 
570609033 5.09593 1.45116 5 1 
1389635400 5.52564 1.86155 5 1 
1914488865 1.12012 8.21263 1 8 
1450260457 0.159659 1.30656 0 1 
996990659 0.752066 6.76582 0 6 
188563845 1.92505 2.33946 1 2 
362051114 6.57431 8.82641 6 8 
1513387968 0.737772 0.484941 0 0 
1700525519 9.7538 4.01715 9 4 
512774405 0.633543 8.33832 0 8 
1243622795 2.6111 0.29783 2 0 
1912764719 3.64091 9.68395 3 9 
649506826 4.09558 9.44426 4 9 
1477504650 4.33811 2.02689 4 2 
1202195533 1.99785 3.90848 1 3 
659133772 2.82733 0.282001 2 0 
1430556099 0.804789 7.30568 0 7 
388629301 1.76455 4.02779 1 4 
26491126 4.42274 8.76724 4 8 
770103817 5.28907 8.67135 5 8 
69602135 1.04489 0.218318 1 0 
1857483231 9.42793 8.77394 9 8 
1481117577 4.98516 1.27369 4 1 
1425714041 7.51709 0.618258 7 0 
718163950 0.371842 1.74654 0 1 
628740691 6.05948 9.12853 6 9 
431861231 3.81798 8.18108 3 8 
759777867 5.25388 0.591251 5 0 
1229949957 1.88254 5.38982 1 5 
256061771 7.49241 7.77708 7 7 
1586004726 1.65266 9.94363 1 9 
260322949 0.983956 4.33439 0 4 
1514473040 1.90893 8.11423 1 8 
2116177374 0.427229 4.29545 0 4 
1165814652 8.05147 0.758244 8 0 
1423844572 8.56958 1.38592 8 1 
1900519091 1.10277 3.99443 1 3 
1671304473 1.38508 8.31904 1 8 
998283236 2.39826 7.85937 2 7 
1236657683 5.2304 0.659798 5 0 
1333516954 6.54198 0.983174 6 0 
1302000628 6.1031 0.497558 6 0 
1431252671 0.281283 6.78106 0 6 
1777990786 1.07156 2.92893 1 2 
1524253140 1.91802 2.73795 1 2 
1477726799 1.56016 4.83746 1 4 
119866876 3.42269 0.360281 3 0 
622951170 7.23785 2.02236 7 2 
1759085466 3.38817 1.08444 3 1 
385939013 3.21007 1.38491 3 1 
1993727402 2.02529 8.36775 2 8 
1703522970 3.55199 0.474135 3 0 
681354917 7.90071 9.61006 7 9 
1586465144 6.41939 9.30546 6 9 
1356624604 1.90753 3.51732 1 3 
1302229208 4.26477 1.86595 4 1 
2020606786 8.26978 6.13503 8 6 
708426373 1.56584 3.40374 1 3 
198271081 0.421313 0.249054 0 0 
835821833 2.23676 3.062 2 3 
1152941875 1.30855 1.10332 1 1 
67363218 2.13612 6.59003 2 6 
1365942830 6.71061 1.62581 6 1 
678459391 2.23637 0.909213 2 0 
823460739 5.59308 8.68471 5 8 
1983254740 7.68205 2.31733 7 2 
354583274 1.07923 9.94524 1 9 
897486753 2.66873 1.14931 2 1 
480876662 3.68193 1.55065 3 1 
937530382 1.25432 5.64938 1 5 
1723346096 1.42734 8.72697 1 8 
32693099 1.61781 4.99413 1 4 
975379459 1.65564 1.25183 1 1 
1750693155 4.90487 8.10527 4 8 
63517704 8.12637 3.48964 8 3 
1302526920 7.52597 0.857092 7 0 
1857237054 5.265 1.65198 5 1 
1021288100 9.90964 5.34122 9 5 
885533083 1.86018 8.99983 1 8 
952566951 6.10275 9.17621 6 9 
778021200 0.216286 1.12793 0 1 
630669235 0.759304 0.828824 0 0 
2143495870 0.136571 3.90745 0 3 
583147039 3.63857 8.79272 3 8 
197543163 2.48383 0.763143 2 0 
326281308 7.28478 2.07645 7 2 
136470232 3.47683 2.13324 3 2 
1110213077 2.49754 9.91624 2 9 
1118303309 2.12788 3.00448 2 3 
1876786877 1.7533 9.7716 1 9 
133738358 1.60021 7.84401 1 7 
2069237728 3.0271 1.36114 3 1 
738302300 4.11333 9.76009 4 9 
1475233366 6.42232 0.746639 6 0 
1774307117 0.328455 2.4185 0 2 
145824282 1.03652 9.71415 1 9 
1628638341 8.85349 6.97307 8 6 
534272976 7.34474 9.65515 7 9 
1944917332 0.184267 1.60983 0 1 
1807475157 2.00733 1.79345 2 1 
922795150 1.63924 9.5576 1 9 
642682179 0.887107 1.93641 0 1 
83400183 2.20057 0.920883 2 0 
724941432 4.91459 1.72002 4 1 
1313435794 1.38558 3.47666 1 3 
1187036195 1.0467 7.36483 1 7 
2008251007 1.80787 5.0766 1 5 
1571553709 5.6339 8.02673 5 8 
1917120398 8.57269 0.847117 8 0 
256456538 7.64945 1.58921 7 1 
1884240995 0.267184 4.55457 0 4 
263546290 3.17914 2.42431 3 2 
2022191339 0.748179 6.86117 0 6 
255157502 1.54362 2.37895 1 2 
2030062520 3.45687 0.370806 3 0 
1421087023 4.55097 0.236452 4 0 
291834626 4.23543 1.85908 4 1 
206396951 2.79721 2.81573 2 2 
1545313152 2.0512 7.8936 2 7 
1715572158 3.60918 0.551675 3 0 
786711515 0.0287396 3.09578 0 3 
1131708660 0.108711 3.94524 0 3 
