ITEM: TIMESTEP
0
ITEM: NUMBER OF CELLS
1
ITEM: BOX BOUNDS rr rr rr
0 0.0001
0 0.0001
0 0.0001
ITEM: CELLS c_2[1] c_2[2] c_2[3] c_2[4] c_2[5] c_2[6] c_2[7] 
32 2.46148e+23 -44.6027 5.22524 55.3624 4.61288e-21 222.74 
