ITEM: TIMESTEP
5
ITEM: NUMBER OF CELLS
1
ITEM: BOX BOUNDS rr rr rr
0 1e-05
0 1e-05
0 1e-05
ITEM: CELLS c_2[1] c_2[2] c_2[3] c_2[4] c_2[5] c_2[6] c_2[7] 
6 9.10983e+22 -71.6843 -33.5409 -126.745 6.01597e-21 290.49 
