ITEM: TIMESTEP
0
ITEM: NUMBER OF TALLIES
0
ITEM: BOX BOUNDS rr rr rr
0 0.0001
0 0.0001
0 0.0001
ITEM: TALLIES c_1[1] c_1[2] c_1[3] c_1[4] c_1[5] c_1[6] c_1[7] c_1[8] c_1[9] c_1[10] c_1[11] c_1[12] c_1[13] c_1[14] c_1[15] c_1[16] c_1[17] c_1[18] c_1[19] c_1[20] c_1[21] 
ITEM: TIMESTEP
100
ITEM: NUMBER OF TALLIES
3
ITEM: BOX BOUNDS rr rr rr
0 0.0001
0 0.0001
0 0.0001
ITEM: TALLIES c_1[1] c_1[2] c_1[3] c_1[4] c_1[5] c_1[6] c_1[7] c_1[8] c_1[9] c_1[10] c_1[11] c_1[12] c_1[13] c_1[14] c_1[15] c_1[16] c_1[17] c_1[18] c_1[19] c_1[20] c_1[21] 
9 30 2121341877 1822172625 2121341877 1822172625 123065551 1 1 2 2 1 -925.868 -4571.47 4350.17 -925.868 -4571.47 4350.17 -1521.1 -2776.91 -966.278 
9 92 913005120 1906422674 913005120 1906422674 1603396369 1 1 2 2 1 2711.82 6543.93 -797.998 2711.82 6543.93 -797.998 -864.352 -4156.42 1975.95 
9 379 1781008617 669159005 1781008617 669159005 2086331962 1 1 2 2 1 2203.55 361.988 168.799 2203.55 361.988 168.799 2605.06 1860.85 -1146.11 
ITEM: TIMESTEP
200
ITEM: NUMBER OF TALLIES
2
ITEM: BOX BOUNDS rr rr rr
0 0.0001
0 0.0001
0 0.0001
ITEM: TALLIES c_1[1] c_1[2] c_1[3] c_1[4] c_1[5] c_1[6] c_1[7] c_1[8] c_1[9] c_1[10] c_1[11] c_1[12] c_1[13] c_1[14] c_1[15] c_1[16] c_1[17] c_1[18] c_1[19] c_1[20] c_1[21] 
9 242 1855219703 444058350 1855219703 444058350 804753512 1 1 2 2 1 806.29 -2282.25 -58.83 806.29 -2282.25 -58.83 2188.13 -4215.53 -2015.63 
10 647 1736325435 1601808151 1736325435 1601808151 931834190 2 1 2 2 2 1364.99 -2596.54 -1611.97 1364.99 -2596.54 -1611.97 -3895.42 -3722.8 -100.869 
ITEM: TIMESTEP
300
ITEM: NUMBER OF TALLIES
4
ITEM: BOX BOUNDS rr rr rr
0 0.0001
0 0.0001
0 0.0001
ITEM: TALLIES c_1[1] c_1[2] c_1[3] c_1[4] c_1[5] c_1[6] c_1[7] c_1[8] c_1[9] c_1[10] c_1[11] c_1[12] c_1[13] c_1[14] c_1[15] c_1[16] c_1[17] c_1[18] c_1[19] c_1[20] c_1[21] 
9 205 1439449196 567428437 1439449196 567428437 963143701 1 1 2 2 1 1301.06 -1300.85 1751.33 1301.06 -1300.85 1751.33 -1622.49 3606.67 -550.18 
9 763 929112233 21018996 929112233 21018996 1475719170 1 1 2 2 1 -2080.91 -791.483 717.311 -2080.91 -791.483 717.311 5240.08 272.515 -21.4547 
10 961 522812530 1688017456 522812530 1688017456 1414729060 1 2 2 2 2 -4286.58 -816.241 980.753 -4286.58 -816.241 980.753 -3429.56 -2778.94 906.2 
9 989 1101926307 225194824 1101926307 225194824 1354924546 1 1 2 2 1 -209.102 117.167 -4189.07 -209.102 117.167 -4189.07 1014.34 926.819 3019 
ITEM: TIMESTEP
400
ITEM: NUMBER OF TALLIES
1
ITEM: BOX BOUNDS rr rr rr
0 0.0001
0 0.0001
0 0.0001
ITEM: TALLIES c_1[1] c_1[2] c_1[3] c_1[4] c_1[5] c_1[6] c_1[7] c_1[8] c_1[9] c_1[10] c_1[11] c_1[12] c_1[13] c_1[14] c_1[15] c_1[16] c_1[17] c_1[18] c_1[19] c_1[20] c_1[21] 
9 804 1696825905 904366657 1696825905 904366657 388373197 1 1 2 2 1 -3171.18 -106.06 -279.271 -3171.18 -106.06 -279.271 -2744.3 937.09 -2508.52 
ITEM: TIMESTEP
500
ITEM: NUMBER OF TALLIES
3
ITEM: BOX BOUNDS rr rr rr
0 0.0001
0 0.0001
0 0.0001
ITEM: TALLIES c_1[1] c_1[2] c_1[3] c_1[4] c_1[5] c_1[6] c_1[7] c_1[8] c_1[9] c_1[10] c_1[11] c_1[12] c_1[13] c_1[14] c_1[15] c_1[16] c_1[17] c_1[18] c_1[19] c_1[20] c_1[21] 
10 94 1319555188 960452341 1319555188 960452341 782976499 2 1 2 2 2 5703.35 -568.795 714.611 5703.35 -568.795 714.611 3938.77 -1890.93 490.652 
9 154 2092691643 1848063317 2092691643 1848063317 1447575671 1 1 2 2 1 -3045.59 4505.75 -374.786 -3045.59 4505.75 -374.786 -2101.97 94.819 2517.31 
9 990 684891481 1981523138 684891481 1981523138 39694244 1 1 2 2 1 855.131 -1226.24 -1044.58 855.131 -1226.24 -1044.58 -1634.26 -2101.94 2189.54 
ITEM: TIMESTEP
600
ITEM: NUMBER OF TALLIES
2
ITEM: BOX BOUNDS rr rr rr
0 0.0001
0 0.0001
0 0.0001
ITEM: TALLIES c_1[1] c_1[2] c_1[3] c_1[4] c_1[5] c_1[6] c_1[7] c_1[8] c_1[9] c_1[10] c_1[11] c_1[12] c_1[13] c_1[14] c_1[15] c_1[16] c_1[17] c_1[18] c_1[19] c_1[20] c_1[21] 
9 124 813890892 734382361 813890892 734382361 2001114896 1 1 2 2 1 1242.18 -420.131 -3716.85 1242.18 -420.131 -3716.85 2580.68 -126.67 2493.54 
9 320 1690125378 533553887 1690125378 533553887 2024240434 1 1 2 2 1 -4595.78 972.012 -1109.01 -4595.78 972.012 -1109.01 -207.565 990.424 -762.418 
ITEM: TIMESTEP
700
ITEM: NUMBER OF TALLIES
1
ITEM: BOX BOUNDS rr rr rr
0 0.0001
0 0.0001
0 0.0001
ITEM: TALLIES c_1[1] c_1[2] c_1[3] c_1[4] c_1[5] c_1[6] c_1[7] c_1[8] c_1[9] c_1[10] c_1[11] c_1[12] c_1[13] c_1[14] c_1[15] c_1[16] c_1[17] c_1[18] c_1[19] c_1[20] c_1[21] 
9 711 1837418153 1738595839 1837418153 1738595839 1537535634 1 1 2 2 1 -4098.09 1575.75 2808.39 -4098.09 1575.75 2808.39 5046.54 -1429.36 -3339.35 
ITEM: TIMESTEP
800
ITEM: NUMBER OF TALLIES
2
ITEM: BOX BOUNDS rr rr rr
0 0.0001
0 0.0001
0 0.0001
ITEM: TALLIES c_1[1] c_1[2] c_1[3] c_1[4] c_1[5] c_1[6] c_1[7] c_1[8] c_1[9] c_1[10] c_1[11] c_1[12] c_1[13] c_1[14] c_1[15] c_1[16] c_1[17] c_1[18] c_1[19] c_1[20] c_1[21] 
9 410 1517037157 1080209857 1517037157 1080209857 834539450 1 1 2 2 1 -3383.68 -4532.52 -3275.18 -3383.68 -4532.52 -3275.18 2687.79 346.768 1107.59 
10 966 1267382066 1156958968 1267382066 1156958968 1653290498 2 1 2 2 2 1804.76 913.856 -1767.05 1804.76 913.856 -1767.05 -944.638 -1236.4 2515.76 
ITEM: TIMESTEP
900
ITEM: NUMBER OF TALLIES
0
ITEM: BOX BOUNDS rr rr rr
0 0.0001
0 0.0001
0 0.0001
ITEM: TALLIES c_1[1] c_1[2] c_1[3] c_1[4] c_1[5] c_1[6] c_1[7] c_1[8] c_1[9] c_1[10] c_1[11] c_1[12] c_1[13] c_1[14] c_1[15] c_1[16] c_1[17] c_1[18] c_1[19] c_1[20] c_1[21] 
ITEM: TIMESTEP
1000
ITEM: NUMBER OF TALLIES
0
ITEM: BOX BOUNDS rr rr rr
0 0.0001
0 0.0001
0 0.0001
ITEM: TALLIES c_1[1] c_1[2] c_1[3] c_1[4] c_1[5] c_1[6] c_1[7] c_1[8] c_1[9] c_1[10] c_1[11] c_1[12] c_1[13] c_1[14] c_1[15] c_1[16] c_1[17] c_1[18] c_1[19] c_1[20] c_1[21] 
