ITEM: TIMESTEP
0
ITEM: NUMBER OF TALLIES
0
ITEM: BOX BOUNDS rr rr rr
0 0.0001
0 0.0001
0 0.0001
ITEM: TALLIES c_1[1] c_1[2] c_1[3] c_1[4] c_1[5] c_1[6] c_1[7] c_1[8] c_1[9] c_1[10] c_1[11] c_1[12] c_1[13] c_1[14] c_1[15] c_1[16] c_1[17] c_1[18] c_1[19] c_1[20] c_1[21] 
ITEM: TIMESTEP
100
ITEM: NUMBER OF TALLIES
1
ITEM: BOX BOUNDS rr rr rr
0 0.0001
0 0.0001
0 0.0001
ITEM: TALLIES c_1[1] c_1[2] c_1[3] c_1[4] c_1[5] c_1[6] c_1[7] c_1[8] c_1[9] c_1[10] c_1[11] c_1[12] c_1[13] c_1[14] c_1[15] c_1[16] c_1[17] c_1[18] c_1[19] c_1[20] c_1[21] 
9 562 1577137377 866350035 1577137377 866350035 1441232088 1 1 2 2 1 -4422.88 -1854.18 -1061.58 -4422.88 -1854.18 -1061.58 -705.699 -4116.23 5206 
ITEM: TIMESTEP
200
ITEM: NUMBER OF TALLIES
3
ITEM: BOX BOUNDS rr rr rr
0 0.0001
0 0.0001
0 0.0001
ITEM: TALLIES c_1[1] c_1[2] c_1[3] c_1[4] c_1[5] c_1[6] c_1[7] c_1[8] c_1[9] c_1[10] c_1[11] c_1[12] c_1[13] c_1[14] c_1[15] c_1[16] c_1[17] c_1[18] c_1[19] c_1[20] c_1[21] 
9 832 1601057856 820952600 1601057856 820952600 223799233 1 1 2 2 1 900.428 -2797.99 -4063.04 900.428 -2797.99 -4063.04 -1674.21 -2438.97 325.32 
10 317 1248625188 1439946175 1248625188 1439946175 60370098 2 1 2 2 2 -1064.34 4245.49 -1469.54 -1064.34 4245.49 -1469.54 -884.376 3576.87 -715.755 
10 479 1678510565 1843834512 1678510565 1843834512 443354301 1 2 2 2 2 -1307.48 -1076.46 -534.255 -1307.48 -1076.46 -534.255 400.508 2961.12 -2561.34 
ITEM: TIMESTEP
300
ITEM: NUMBER OF TALLIES
4
ITEM: BOX BOUNDS rr rr rr
0 0.0001
0 0.0001
0 0.0001
ITEM: TALLIES c_1[1] c_1[2] c_1[3] c_1[4] c_1[5] c_1[6] c_1[7] c_1[8] c_1[9] c_1[10] c_1[11] c_1[12] c_1[13] c_1[14] c_1[15] c_1[16] c_1[17] c_1[18] c_1[19] c_1[20] c_1[21] 
10 301 1698952320 1289020829 1698952320 1289020829 2085249609 1 2 2 2 2 -69.4713 -274.817 864.479 -69.4713 -274.817 864.479 129.504 260.795 354.965 
9 683 232489427 1238868670 232489427 1238868670 578697766 1 1 2 2 1 -3697.61 -104.76 992.537 -3697.61 -104.76 992.537 -44.2202 3326.74 1515.41 
9 72 1800475576 1786914945 1800475576 1786914945 1303084710 1 1 2 2 1 -216.131 6054.85 -2635.83 -216.131 6054.85 -2635.83 3484.68 -6408.09 2820.92 
9 40 1831397502 1937624915 1831397502 1937624915 1923742617 1 1 2 2 1 -2501.01 1328.6 -4030.13 -2501.01 1328.6 -4030.13 1558.02 -5162.79 -3428.13 
ITEM: TIMESTEP
400
ITEM: NUMBER OF TALLIES
1
ITEM: BOX BOUNDS rr rr rr
0 0.0001
0 0.0001
0 0.0001
ITEM: TALLIES c_1[1] c_1[2] c_1[3] c_1[4] c_1[5] c_1[6] c_1[7] c_1[8] c_1[9] c_1[10] c_1[11] c_1[12] c_1[13] c_1[14] c_1[15] c_1[16] c_1[17] c_1[18] c_1[19] c_1[20] c_1[21] 
10 932 109719590 812705176 109719590 812705176 984807471 2 1 2 2 2 -653.891 3332.52 809.987 -653.891 3332.52 809.987 3694.55 4878.49 4326.41 
ITEM: TIMESTEP
500
ITEM: NUMBER OF TALLIES
1
ITEM: BOX BOUNDS rr rr rr
0 0.0001
0 0.0001
0 0.0001
ITEM: TALLIES c_1[1] c_1[2] c_1[3] c_1[4] c_1[5] c_1[6] c_1[7] c_1[8] c_1[9] c_1[10] c_1[11] c_1[12] c_1[13] c_1[14] c_1[15] c_1[16] c_1[17] c_1[18] c_1[19] c_1[20] c_1[21] 
10 610 431444260 852165549 431444260 852165549 340528668 2 1 2 2 2 -999.07 2759.2 -1895.46 -999.07 2759.2 -1895.46 1342.92 1017.4 142.779 
ITEM: TIMESTEP
600
ITEM: NUMBER OF TALLIES
1
ITEM: BOX BOUNDS rr rr rr
0 0.0001
0 0.0001
0 0.0001
ITEM: TALLIES c_1[1] c_1[2] c_1[3] c_1[4] c_1[5] c_1[6] c_1[7] c_1[8] c_1[9] c_1[10] c_1[11] c_1[12] c_1[13] c_1[14] c_1[15] c_1[16] c_1[17] c_1[18] c_1[19] c_1[20] c_1[21] 
10 957 1424405353 1217326084 1424405353 1217326084 250853154 1 2 2 2 2 -415.911 -1826.44 265.092 -415.911 -1826.44 265.092 -424.657 -2290.35 284.407 
ITEM: TIMESTEP
700
ITEM: NUMBER OF TALLIES
1
ITEM: BOX BOUNDS rr rr rr
0 0.0001
0 0.0001
0 0.0001
ITEM: TALLIES c_1[1] c_1[2] c_1[3] c_1[4] c_1[5] c_1[6] c_1[7] c_1[8] c_1[9] c_1[10] c_1[11] c_1[12] c_1[13] c_1[14] c_1[15] c_1[16] c_1[17] c_1[18] c_1[19] c_1[20] c_1[21] 
9 766 415014988 4172064 415014988 4172064 865425623 1 1 2 2 1 -1861.54 2976.39 -2606.06 -1861.54 2976.39 -2606.06 -964.53 -602.034 3166.65 
ITEM: TIMESTEP
800
ITEM: NUMBER OF TALLIES
0
ITEM: BOX BOUNDS rr rr rr
0 0.0001
0 0.0001
0 0.0001
ITEM: TALLIES c_1[1] c_1[2] c_1[3] c_1[4] c_1[5] c_1[6] c_1[7] c_1[8] c_1[9] c_1[10] c_1[11] c_1[12] c_1[13] c_1[14] c_1[15] c_1[16] c_1[17] c_1[18] c_1[19] c_1[20] c_1[21] 
ITEM: TIMESTEP
900
ITEM: NUMBER OF TALLIES
0
ITEM: BOX BOUNDS rr rr rr
0 0.0001
0 0.0001
0 0.0001
ITEM: TALLIES c_1[1] c_1[2] c_1[3] c_1[4] c_1[5] c_1[6] c_1[7] c_1[8] c_1[9] c_1[10] c_1[11] c_1[12] c_1[13] c_1[14] c_1[15] c_1[16] c_1[17] c_1[18] c_1[19] c_1[20] c_1[21] 
ITEM: TIMESTEP
1000
ITEM: NUMBER OF TALLIES
0
ITEM: BOX BOUNDS rr rr rr
0 0.0001
0 0.0001
0 0.0001
ITEM: TALLIES c_1[1] c_1[2] c_1[3] c_1[4] c_1[5] c_1[6] c_1[7] c_1[8] c_1[9] c_1[10] c_1[11] c_1[12] c_1[13] c_1[14] c_1[15] c_1[16] c_1[17] c_1[18] c_1[19] c_1[20] c_1[21] 
