ITEM: TIMESTEP
0
ITEM: NUMBER OF TALLIES
0
ITEM: BOX BOUNDS oo rr pp
0 10
0 10
-0.5 0.5
ITEM: TALLIES c_1[1] c_1[2] c_1[3] c_1[4] c_1[5] c_1[6] c_1[7] c_1[8] c_1[9] c_1[10] c_1[11] c_1[12] 
ITEM: TIMESTEP
100
ITEM: NUMBER OF TALLIES
0
ITEM: BOX BOUNDS oo rr pp
0 10
0 10
-0.5 0.5
ITEM: TALLIES c_1[1] c_1[2] c_1[3] c_1[4] c_1[5] c_1[6] c_1[7] c_1[8] c_1[9] c_1[10] c_1[11] c_1[12] 
ITEM: TIMESTEP
200
ITEM: NUMBER OF TALLIES
32
ITEM: BOX BOUNDS oo rr pp
0 10
0 10
-0.5 0.5
ITEM: TALLIES c_1[1] c_1[2] c_1[3] c_1[4] c_1[5] c_1[6] c_1[7] c_1[8] c_1[9] c_1[10] c_1[11] c_1[12] 
1 36 686062628 0 0 1 0 0 1.63917e-05 4.29647 2.08944 0 
1 35 2132104419 0 0 1 0 0 5.32098e-06 3.97762 2.18457 0 
6 37 1327236578 0 0 1 0 0 9.04522e-05 4.69314 2.02089 0 
1 30 2068026732 0 0 1 0 0 2.29937e-05 2.45988 3.41482 0 
1 29 643491954 0 0 1 0 0 8.69556e-05 2.25454 3.80239 0 
1 38 192131593 0 0 1 0 0 4.07538e-06 4.88963 2.00592 0 
1 32 430695310 0 0 1 0 0 1.363e-05 2.89447 2.86994 0 
1 34 862096510 0 0 1 0 0 2.47772e-05 3.63793 2.3321 0 
6 36 713132637 0 0 1 0 0 9.7694e-05 4.38199 2.06748 0 
1 35 1629433200 0 0 1 0 0 9.17598e-05 3.87565 2.22495 0 
1 27 76609587 0 0 1 0 0 6.46987e-05 2.0902 4.27515 0 
1 37 2110461477 0 0 1 0 0 3.86357e-06 4.62888 2.02901 0 
1 31 2139591425 0 0 1 0 0 7.80968e-05 2.69907 3.08418 0 
1 31 1447442508 0 0 1 0 0 5.44796e-05 2.61563 3.18505 0 
1 28 1266290780 0 0 1 0 0 9.11876e-05 2.09693 4.24567 0 
1 23 600230275 0 0 1 0 0 3.40391e-05 2.20269 6.07981 0 
6 24 1637003494 0 0 1 0 0 1.70053e-05 2.08664 5.70615 0 
6 18 147368335 0 0 1 0 0 8.18467e-05 3.37146 7.51768 0 
1 14 506329833 0 0 1 0 0 3.25931e-05 4.70359 7.98043 0 
1 17 264273986 0 0 1 0 0 5.7001e-05 3.5397 7.6139 0 
6 15 863262061 0 0 1 0 0 8.11397e-05 4.25808 7.9007 0 
6 15 699903281 0 0 1 0 0 3.32422e-05 4.4244 7.94341 0 
1 17 857541143 0 0 1 0 0 8.32622e-05 3.44543 7.56207 0 
1 16 1584589021 0 0 1 0 0 5.1854e-05 3.99118 7.82079 0 
1 18 890529616 0 0 1 0 0 6.09413e-05 3.16013 7.36414 0 
6 19 1020138342 0 0 1 0 0 7.06868e-05 3.06837 7.29336 0 
1 22 1033906272 0 0 1 0 0 7.36095e-05 2.29079 6.27464 0 
1 25 931371639 0 0 1 0 0 5.06981e-05 2.00258 5.04097 0 
1 39 270216228 0 0 1 0 0 7.22318e-05 5.5104 2.0466 0 
1 41 311083647 0 0 1 0 0 4.75597e-05 6.23436 2.2685 0 
1 39 1260493854 0 0 1 0 0 6.73252e-05 5.49322 2.04443 0 
6 12 1239112613 0 0 1 0 0 3.363e-05 5.36258 7.97207 0 
ITEM: TIMESTEP
300
ITEM: NUMBER OF TALLIES
26
ITEM: BOX BOUNDS oo rr pp
0 10
0 10
-0.5 0.5
ITEM: TALLIES c_1[1] c_1[2] c_1[3] c_1[4] c_1[5] c_1[6] c_1[7] c_1[8] c_1[9] c_1[10] c_1[11] c_1[12] 
1 32 780115585 0 0 1 0 0 2.97894e-05 2.83312 2.92756 0 
6 35 957768253 0 0 1 0 0 6.86506e-05 3.84321 2.23779 0 
6 28 1881381945 0 0 1 0 0 7.44974e-05 2.16663 4.03118 0 
1 31 1444829 0 0 1 0 0 7.29848e-05 2.68508 3.1011 0 
1 32 949381112 0 0 1 0 0 5.44293e-05 3.0392 2.73403 0 
1 36 1145674749 0 0 1 0 0 1.28943e-05 4.22272 2.10837 0 
1 17 181573886 0 0 1 0 0 3.4652e-05 3.51967 7.60288 0 
6 13 2143738235 0 0 1 0 0 4.09187e-05 4.8612 7.99408 0 
1 19 961258146 0 0 1 0 0 8.79526e-05 3.04235 7.26892 0 
1 18 1349167076 0 0 1 0 0 7.92585e-05 3.26777 7.44235 0 
1 16 1419896159 0 0 1 0 0 7.53016e-05 4.01611 7.83067 0 
1 17 95934081 0 0 1 0 0 3.3769e-05 3.43179 7.55457 0 
1 20 552033119 0 0 1 0 0 8.79423e-05 2.72492 6.94705 0 
1 15 379331079 0 0 1 0 0 8.37952e-05 4.1218 7.86571 0 
1 21 589968860 0 0 1 0 0 2.59835e-05 2.41315 6.51156 0 
6 17 993900176 0 0 1 0 0 2.9391e-05 3.41257 7.54401 0 
1 23 1287061939 0 0 1 0 0 1.7997e-05 2.20985 6.10185 0 
6 17 331708022 0 0 1 0 0 7.89203e-05 3.58563 7.63915 0 
6 40 155711455 0 0 1 0 0 3.20488e-05 5.78712 2.1109 0 
6 42 2094242156 0 0 1 0 0 7.96822e-05 6.53034 2.42461 0 
7 42 659992522 3.2608e-315 0 1 2 0 9.42056e-05 6.58982 2.45731 0 
1 39 1031481911 0 0 1 0 0 6.07266e-05 5.23731 2.0121 0 
1 39 1512730207 0 0 1 0 0 7.39751e-05 5.24721 2.01335 0 
1 10 2038701802 0 0 1 0 0 9.68093e-05 6.07878 7.7931 0 
7 12 369517803 1.82566e-315 0 1 2 0 4.92355e-05 5.45736 7.9601 0 
1 13 567534517 0 0 1 0 0 3.976e-05 5.06528 7.99408 0 
ITEM: TIMESTEP
400
ITEM: NUMBER OF TALLIES
40
ITEM: BOX BOUNDS oo rr pp
0 10
0 10
-0.5 0.5
ITEM: TALLIES c_1[1] c_1[2] c_1[3] c_1[4] c_1[5] c_1[6] c_1[7] c_1[8] c_1[9] c_1[10] c_1[11] c_1[12] 
1 28 448068163 0 0 1 0 0 1.68078e-05 2.17267 4.01257 0 
1 35 145497044 0 0 1 0 0 9.28636e-06 3.73925 2.27895 0 
8 31 36035312 1.78038e-316 105823319 1 1 1 6.93028e-05 2.63829 3.15766 0 
6 30 736962032 0 0 1 0 0 2.2863e-05 2.47637 3.38883 0 
6 37 725089695 0 0 1 0 0 9.29276e-05 4.79354 2.00821 0 
1 35 1988112567 0 0 1 0 0 6.90536e-07 4.01171 2.17108 0 
1 35 372978932 0 0 1 0 0 4.50868e-05 4.06698 2.14919 0 
1 30 1810119180 0 0 1 0 0 2.68394e-05 2.40388 3.50305 0 
1 35 2118780157 0 0 1 0 0 6.26028e-05 3.72531 2.28447 0 
1 36 1985533691 0 0 1 0 0 1.12645e-05 4.10882 2.13762 0 
1 28 545997867 0 0 1 0 0 7.93994e-05 2.1672 4.02941 0 
1 30 697223309 0 0 1 0 0 4.80969e-05 2.45154 3.42796 0 
1 29 2121227474 0 0 1 0 0 6.66779e-05 2.21934 3.87721 0 
6 32 1429361307 0 0 1 0 0 2.28587e-06 2.96283 2.80575 0 
1 35 532732152 0 0 1 0 0 1.56295e-05 3.96837 2.18824 0 
6 31 585850424 0 0 1 0 0 2.31078e-05 2.7974 2.96533 0 
1 34 1192239599 0 0 1 0 0 1.6319e-05 3.62186 2.34093 0 
1 30 2109244064 0 0 1 0 0 5.25931e-05 2.48318 3.3781 0 
1 27 434106333 0 0 1 0 0 1.09254e-05 2.03794 4.54912 0 
1 34 1890195130 0 0 1 0 0 4.9267e-05 3.67611 2.31111 0 
1 36 1116982111 0 0 1 0 0 8.05586e-06 4.21422 2.11056 0 
1 38 1224396543 0 0 1 0 0 5.22252e-05 4.91151 2.00592 0 
1 31 284310447 0 0 1 0 0 5.42732e-05 2.78528 2.97998 0 
1 16 1143516562 0 0 1 0 0 7.35165e-05 3.73681 7.72008 0 
1 22 188177394 0 0 1 0 0 2.33162e-05 2.32917 6.3562 0 
1 22 365276372 0 0 1 0 0 8.68601e-05 2.23776 6.16193 0 
1 18 48347482 0 0 1 0 0 3.6934e-06 3.12856 7.3412 0 
1 23 1634207808 0 0 1 0 0 3.08997e-05 2.19786 6.06496 0 
1 15 1057066039 0 0 1 0 0 3.45448e-05 4.13519 7.86915 0 
1 19 1497528572 0 0 1 0 0 1.55654e-05 2.88944 7.12534 0 
1 14 2096296819 0 0 1 0 0 4.13602e-05 4.61249 7.96892 0 
1 20 236467619 0 0 1 0 0 6.5909e-05 2.66858 6.87896 0 
6 17 513398563 0 0 1 0 0 1.18779e-05 3.60949 7.65226 0 
1 21 216880910 0 0 1 0 0 5.78625e-05 2.56093 6.74442 0 
8 18 1425697670 7.04388e-315 1293441329 1 1 1 9.38771e-06 3.27616 7.44844 0 
1 18 759772902 0 0 1 0 0 2.52475e-05 3.22044 7.40796 0 
1 39 444539401 0 0 1 0 0 1.74095e-05 5.27272 2.01658 0 
6 43 455033561 0 0 1 0 0 7.36625e-05 6.67523 2.51624 0 
6 40 1044306207 0 0 1 0 0 1.11112e-05 5.61735 2.06731 0 
1 12 115085796 0 0 1 0 0 4.40194e-05 5.44618 7.96151 0 
ITEM: TIMESTEP
500
ITEM: NUMBER OF TALLIES
44
ITEM: BOX BOUNDS oo rr pp
0 10
0 10
-0.5 0.5
ITEM: TALLIES c_1[1] c_1[2] c_1[3] c_1[4] c_1[5] c_1[6] c_1[7] c_1[8] c_1[9] c_1[10] c_1[11] c_1[12] 
1 30 820389038 0 0 1 0 0 1.28991e-05 2.51432 3.32903 0 
1 32 2006540996 0 0 1 0 0 1.9194e-05 2.96699 2.80184 0 
7 29 1283545194 6.34156e-315 0 1 2 0 9.40894e-05 2.33287 3.63594 0 
1 36 410075542 0 0 1 0 0 6.8464e-05 4.25501 2.10009 0 
1 26 1269798005 0 0 1 0 0 3.0935e-05 2.00781 4.87588 0 
1 30 330124897 0 0 1 0 0 3.52758e-05 2.47537 3.39041 0 
1 33 62818747 0 0 1 0 0 2.8289e-06 3.32677 2.51479 0 
1 36 1552588463 0 0 1 0 0 3.37942e-05 4.41002 2.06029 0 
1 34 449616276 0 0 1 0 0 5.60984e-05 3.42739 2.44784 0 
7 30 79493256 3.92749e-316 0 1 2 0 1.06509e-05 2.55483 3.26519 0 
1 37 387834148 0 0 1 0 0 5.57934e-05 4.65749 2.02539 0 
6 30 1992685906 0 0 1 0 0 7.10013e-05 2.44743 3.43443 0 
8 28 1118399823 5.52563e-315 312280129 1 1 1 3.34269e-05 2.1316 4.13897 0 
1 31 1835397113 0 0 1 0 0 5.00025e-05 2.8006 2.96147 0 
1 37 1223785728 0 0 1 0 0 8.15865e-05 4.64754 2.02665 0 
6 38 988634976 0 0 1 0 0 7.36409e-05 4.84488 2.00592 0 
1 18 1083988599 0 0 1 0 0 1.7384e-05 3.21335 7.40281 0 
1 21 353862383 0 0 1 0 0 7.98071e-06 2.48136 6.61903 0 
1 25 2022980941 0 0 1 0 0 2.82135e-05 2.00171 5.02725 0 
6 17 962604352 0 0 1 0 0 1.17596e-05 3.64671 7.67272 0 
1 18 2127734790 0 0 1 0 0 3.94476e-05 3.33275 7.48956 0 
1 18 1784990249 0 0 1 0 0 3.64842e-05 3.22774 7.41327 0 
1 15 2056827581 0 0 1 0 0 4.56028e-06 4.40176 7.93759 0 
1 25 1198176032 0 0 1 0 0 5.76899e-05 2.01988 5.31592 0 
1 18 1239083244 0 0 1 0 0 2.97332e-05 3.24106 7.42294 0 
1 13 508788122 0 0 1 0 0 5.26752e-05 4.86319 7.99408 0 
1 21 660167927 0 0 1 0 0 4.28963e-05 2.49962 6.64781 0 
1 23 1779839536 0 0 1 0 0 9.18902e-05 2.14723 5.90911 0 
1 21 1553442848 0 0 1 0 0 3.9317e-05 2.39591 6.48439 0 
6 16 622393554 0 0 1 0 0 7.14691e-05 3.81862 7.75247 0 
1 17 1601225330 0 0 1 0 0 5.62344e-05 3.46683 7.57384 0 
1 22 1646993762 0 0 1 0 0 4.11047e-05 2.26488 6.21958 0 
8 16 639939659 3.16172e-315 176446552 1 1 1 6.92638e-05 3.74863 7.72476 0 
6 24 132870373 0 0 1 0 0 9.76024e-05 2.06021 5.56761 0 
6 15 415917608 0 0 1 0 0 8.60944e-05 4.22291 7.89167 0 
1 17 377008726 0 0 1 0 0 3.87663e-05 3.67461 7.68807 0 
1 18 1799616267 0 0 1 0 0 1.54384e-05 3.20271 7.39508 0 
1 14 1140931155 0 0 1 0 0 3.52238e-05 4.7796 7.99003 0 
7 19 2130751298 1.05273e-314 0 1 2 0 9.51252e-05 2.95756 7.1893 0 
1 14 1590433802 0 0 1 0 0 9.59981e-05 4.74437 7.98558 0 
1 17 1413954412 0 0 1 0 0 3.80794e-05 3.5963 7.64501 0 
1 19 507513541 0 0 1 0 0 4.59957e-05 2.95102 7.18316 0 
1 13 762966367 0 0 1 0 0 9.09269e-05 5.12306 7.99408 0 
1 11 368897616 0 0 1 0 0 3.67204e-05 5.57611 7.94328 0 
