ITEM: TIMESTEP
0
ITEM: NUMBER OF TALLIES
0
ITEM: BOX BOUNDS rr rr rr
0 0.0001
0 0.0001
0 0.0001
ITEM: TALLIES c_1[1] c_1[2] c_1[3] c_1[4] c_1[5] c_1[6] c_1[7] c_1[8] c_1[9] c_1[10] c_1[11] c_1[12] c_1[13] c_1[14] c_1[15] c_1[16] c_1[17] c_1[18] c_1[19] c_1[20] c_1[21] 
ITEM: TIMESTEP
100
ITEM: NUMBER OF TALLIES
0
ITEM: BOX BOUNDS rr rr rr
0 0.0001
0 0.0001
0 0.0001
ITEM: TALLIES c_1[1] c_1[2] c_1[3] c_1[4] c_1[5] c_1[6] c_1[7] c_1[8] c_1[9] c_1[10] c_1[11] c_1[12] c_1[13] c_1[14] c_1[15] c_1[16] c_1[17] c_1[18] c_1[19] c_1[20] c_1[21] 
ITEM: TIMESTEP
200
ITEM: NUMBER OF TALLIES
2
ITEM: BOX BOUNDS rr rr rr
0 0.0001
0 0.0001
0 0.0001
ITEM: TALLIES c_1[1] c_1[2] c_1[3] c_1[4] c_1[5] c_1[6] c_1[7] c_1[8] c_1[9] c_1[10] c_1[11] c_1[12] c_1[13] c_1[14] c_1[15] c_1[16] c_1[17] c_1[18] c_1[19] c_1[20] c_1[21] 
10 584 998383291 1495566066 998383291 1495566066 70411107 1 2 2 2 2 -6531.66 2980.35 1001.1 -6531.66 2980.35 1001.1 -987.971 5061.5 -362.209 
9 529 777891851 1999755493 777891851 1999755493 786114261 1 1 2 2 1 2160.28 -2817.52 2225.9 2160.28 -2817.52 2225.9 3912.37 -1407.17 690.09 
ITEM: TIMESTEP
300
ITEM: NUMBER OF TALLIES
2
ITEM: BOX BOUNDS rr rr rr
0 0.0001
0 0.0001
0 0.0001
ITEM: TALLIES c_1[1] c_1[2] c_1[3] c_1[4] c_1[5] c_1[6] c_1[7] c_1[8] c_1[9] c_1[10] c_1[11] c_1[12] c_1[13] c_1[14] c_1[15] c_1[16] c_1[17] c_1[18] c_1[19] c_1[20] c_1[21] 
9 271 1178313245 247444054 1178313245 247444054 960366961 1 1 2 2 1 2752.89 1403.97 1834.83 2752.89 1403.97 1834.83 2505.52 -2554.87 -200.983 
9 590 397819829 472021595 397819829 472021595 1231076222 1 1 2 2 1 -205.354 -1861.58 -259.701 -205.354 -1861.58 -259.701 5686.18 -1510.3 -2950.05 
ITEM: TIMESTEP
400
ITEM: NUMBER OF TALLIES
0
ITEM: BOX BOUNDS rr rr rr
0 0.0001
0 0.0001
0 0.0001
ITEM: TALLIES c_1[1] c_1[2] c_1[3] c_1[4] c_1[5] c_1[6] c_1[7] c_1[8] c_1[9] c_1[10] c_1[11] c_1[12] c_1[13] c_1[14] c_1[15] c_1[16] c_1[17] c_1[18] c_1[19] c_1[20] c_1[21] 
ITEM: TIMESTEP
500
ITEM: NUMBER OF TALLIES
1
ITEM: BOX BOUNDS rr rr rr
0 0.0001
0 0.0001
0 0.0001
ITEM: TALLIES c_1[1] c_1[2] c_1[3] c_1[4] c_1[5] c_1[6] c_1[7] c_1[8] c_1[9] c_1[10] c_1[11] c_1[12] c_1[13] c_1[14] c_1[15] c_1[16] c_1[17] c_1[18] c_1[19] c_1[20] c_1[21] 
10 31 375644975 1069828584 375644975 1069828584 41642860 2 1 2 2 2 781.455 113.029 541.858 781.455 113.029 541.858 947.883 -102.544 721.583 
ITEM: TIMESTEP
600
ITEM: NUMBER OF TALLIES
2
ITEM: BOX BOUNDS rr rr rr
0 0.0001
0 0.0001
0 0.0001
ITEM: TALLIES c_1[1] c_1[2] c_1[3] c_1[4] c_1[5] c_1[6] c_1[7] c_1[8] c_1[9] c_1[10] c_1[11] c_1[12] c_1[13] c_1[14] c_1[15] c_1[16] c_1[17] c_1[18] c_1[19] c_1[20] c_1[21] 
9 939 192998272 875199265 192998272 875199265 189942113 1 1 2 2 1 1651.8 -640.598 2729.02 1651.8 -640.598 2729.02 1418.38 1806.28 881.326 
10 779 1077536824 843004133 1077536824 843004133 170234174 2 1 2 2 2 -2055.78 -1513.63 3597.29 -2055.78 -1513.63 3597.29 781.329 1158.93 1836.67 
ITEM: TIMESTEP
700
ITEM: NUMBER OF TALLIES
2
ITEM: BOX BOUNDS rr rr rr
0 0.0001
0 0.0001
0 0.0001
ITEM: TALLIES c_1[1] c_1[2] c_1[3] c_1[4] c_1[5] c_1[6] c_1[7] c_1[8] c_1[9] c_1[10] c_1[11] c_1[12] c_1[13] c_1[14] c_1[15] c_1[16] c_1[17] c_1[18] c_1[19] c_1[20] c_1[21] 
9 365 69010669 1251203197 69010669 1251203197 1348605984 1 1 2 2 1 -1772.51 -1311.14 37.5145 -1772.51 -1311.14 37.5145 3018.68 -1.36141 -5691.25 
9 589 1759260011 1208423953 1759260011 1208423953 466374342 1 1 2 2 1 192.608 2303.66 1089.18 192.608 2303.66 1089.18 295.24 2187.13 -1857.64 
ITEM: TIMESTEP
800
ITEM: NUMBER OF TALLIES
2
ITEM: BOX BOUNDS rr rr rr
0 0.0001
0 0.0001
0 0.0001
ITEM: TALLIES c_1[1] c_1[2] c_1[3] c_1[4] c_1[5] c_1[6] c_1[7] c_1[8] c_1[9] c_1[10] c_1[11] c_1[12] c_1[13] c_1[14] c_1[15] c_1[16] c_1[17] c_1[18] c_1[19] c_1[20] c_1[21] 
9 944 1518460477 1954963623 1518460477 1954963623 1402120634 1 1 2 2 1 1551.15 -2660.66 1680.74 1551.15 -2660.66 1680.74 -594.685 -342.308 1985.2 
10 564 755384493 304476551 755384493 304476551 1075553782 1 2 2 2 2 -3830.69 196.893 914.176 -3830.69 196.893 914.176 -966.745 -952.079 1999.23 
ITEM: TIMESTEP
900
ITEM: NUMBER OF TALLIES
3
ITEM: BOX BOUNDS rr rr rr
0 0.0001
0 0.0001
0 0.0001
ITEM: TALLIES c_1[1] c_1[2] c_1[3] c_1[4] c_1[5] c_1[6] c_1[7] c_1[8] c_1[9] c_1[10] c_1[11] c_1[12] c_1[13] c_1[14] c_1[15] c_1[16] c_1[17] c_1[18] c_1[19] c_1[20] c_1[21] 
10 694 1574762160 1049744013 1574762160 1049744013 813410970 1 2 2 2 2 -967.314 -403.781 -1130.81 -967.314 -403.781 -1130.81 -3625.02 263.242 1390.15 
10 275 164109203 321976181 164109203 321976181 1041383417 1 2 2 2 2 -888.258 3958.05 2229.88 -888.258 3958.05 2229.88 -1709.43 -364.361 310.769 
10 695 139310049 829045865 139310049 829045865 1737197412 1 2 2 2 2 -1176.62 340.241 -678.835 -1176.62 340.241 -678.835 577.255 379.853 1063.02 
ITEM: TIMESTEP
1000
ITEM: NUMBER OF TALLIES
0
ITEM: BOX BOUNDS rr rr rr
0 0.0001
0 0.0001
0 0.0001
ITEM: TALLIES c_1[1] c_1[2] c_1[3] c_1[4] c_1[5] c_1[6] c_1[7] c_1[8] c_1[9] c_1[10] c_1[11] c_1[12] c_1[13] c_1[14] c_1[15] c_1[16] c_1[17] c_1[18] c_1[19] c_1[20] c_1[21] 
