ITEM: TIMESTEP
0
ITEM: NUMBER OF TALLIES
0
ITEM: BOX BOUNDS oo rr pp
0 10
0 10
-0.5 0.5
ITEM: TALLIES c_1[1] c_1[2] c_1[3] c_1[4] c_1[5] c_1[6] c_1[7] 
ITEM: TIMESTEP
100
ITEM: NUMBER OF TALLIES
115
ITEM: BOX BOUNDS oo rr pp
0 10
0 10
-0.5 0.5
ITEM: TALLIES c_1[1] c_1[2] c_1[3] c_1[4] c_1[5] c_1[6] c_1[7] 
42 509983166 1 2.9499e-05 6.5593 2.44053 0 
40 984727911 1 3.04302e-05 5.89259 2.13798 0 
18 580913905 2 6.72913e-05 3.18717 7.38379 0 
20 92390448 2 3.85922e-05 2.77403 7.00642 0 
17 502913684 2 8.49925e-05 3.4328 7.55513 0 
19 237544410 1 7.18966e-05 3.04665 7.27297 0 
41 626176216 1 2.65372e-05 6.0859 2.20972 0 
14 174808265 1 9.99514e-05 4.80925 7.99378 0 
18 964402219 1 1.97396e-05 3.32963 7.48729 0 
36 258161367 1 5.03644e-05 4.32163 2.08298 0 
22 667654680 1 6.6518e-05 2.21432 6.11212 0 
30 2073956916 1 1.49267e-05 2.54575 3.2795 0 
21 1132769856 2 9.98582e-05 2.40414 6.49735 0 
16 490714513 2 3.2667e-05 3.88725 7.77964 0 
15 1250766676 1 4.56518e-05 4.23111 7.89378 0 
35 1966784273 2 3.9098e-05 3.94964 2.19565 0 
34 368287660 2 7.97125e-05 3.41217 2.45621 0 
29 553189569 1 1.92153e-05 2.32096 3.66125 0 
16 1867219400 1 9.56108e-06 3.87145 7.77339 0 
16 1916210734 2 4.91496e-05 3.99825 7.82359 0 
29 2096112876 2 7.96906e-05 2.2146 3.88727 0 
27 523811260 1 6.15965e-05 2.05251 4.47274 0 
17 1305399298 2 5.28505e-05 3.40469 7.53967 0 
21 1427895347 1 5.1132e-05 2.40457 6.49803 0 
19 811855812 1 6.10073e-05 2.90587 7.14077 0 
38 1191176268 1 2.43712e-05 4.92514 2.00592 0 
20 905116444 2 1.51911e-05 2.79798 7.03537 0 
31 160830492 1 1.25398e-05 2.68022 3.10698 0 
28 1738890407 1 8.74664e-05 2.10676 4.21542 0 
24 534146367 2 3.84069e-06 2.07664 5.65373 0 
34 255823305 2 6.74337e-05 3.39625 2.46497 0 
23 1571509439 1 8.71273e-05 2.16998 5.97914 0 
31 601484522 1 3.71701e-05 2.76695 3.00213 0 
20 2091477183 1 6.96825e-05 2.76967 7.00115 0 
23 81405178 1 3.56342e-05 2.15958 5.94712 0 
25 706317344 1 6.48508e-05 2.0058 5.09212 0 
27 2033690182 2 9.71568e-05 2.05298 4.47027 0 
24 789170912 2 3.09151e-05 2.08932 5.72021 0 
21 154784765 1 4.39846e-05 2.40541 6.49935 0 
21 1432999989 1 5.03331e-05 2.40574 6.49987 0 
14 1346247005 1 4.2227e-05 4.45122 7.94855 0 
17 618006219 1 7.16131e-05 3.65414 7.67681 0 
21 444588692 1 8.98096e-05 2.40746 6.50258 0 
32 612431062 1 8.93128e-05 2.93201 2.83469 0 
22 55964108 2 4.04512e-05 2.36383 6.42986 0 
23 1268747746 2 6.43534e-05 2.13033 5.85712 0 
30 892781086 1 9.63076e-05 2.4758 3.38972 0 
24 1508432265 1 7.8249e-05 2.02501 5.3831 0 
26 425306555 1 4.35149e-05 2.01461 4.76786 0 
19 1048200071 2 7.57466e-05 3.03414 7.26122 0 
16 1238928705 2 9.33819e-05 3.80489 7.74704 0 
30 1824258399 2 6.14143e-05 2.4041 3.5027 0 
25 979985917 2 8.67161e-05 2.02318 5.36837 0 
20 6953051 2 7.44201e-05 2.60625 6.80361 0 
22 931525661 1 8.91556e-05 2.33852 6.37606 0 
17 663928164 2 9.7757e-05 3.49285 7.58814 0 
34 1739721653 1 2.41443e-06 3.41731 2.45339 0 
36 1324572884 2 2.86132e-05 4.30926 2.08616 0 
24 1332267209 2 6.87905e-05 2.06137 5.57368 0 
19 281413977 1 9.68393e-05 3.03537 7.26238 0 
21 915795762 1 4.21335e-05 2.45835 6.58278 0 
22 2016649157 1 4.01599e-05 2.27038 6.23126 0 
34 1686967944 1 3.77954e-05 3.44778 2.43664 0 
32 1433050792 2 7.19004e-05 3.01842 2.75354 0 
22 1048786809 2 3.57419e-05 2.21439 6.11227 0 
23 1873147887 2 2.77796e-05 2.19638 6.0604 0 
33 210514712 2 7.48474e-05 3.277 2.55095 0 
34 1984899483 1 4.28208e-05 3.43312 2.4447 0 
23 1989679528 2 7.76099e-05 2.10002 5.76384 0 
18 1307347143 1 1.34694e-05 3.20861 7.39936 0 
19 1664932741 1 5.51981e-06 2.99203 7.22168 0 
21 659479918 2 9.88538e-05 2.543 6.71616 0 
24 1010822150 2 3.30099e-05 2.09207 5.73463 0 
20 1410360518 1 6.86857e-05 2.65373 6.861 0 
31 722048040 2 2.26933e-05 2.77604 2.99115 0 
29 94711789 1 7.45481e-05 2.24686 3.81872 0 
31 1224141905 2 9.72857e-05 2.72138 3.05723 0 
25 920373184 1 3.83808e-05 2.0228 5.36236 0 
26 465925877 2 8.31009e-05 2.00628 4.90019 0 
24 1225734877 1 4.28582e-06 2.04371 5.48115 0 
25 1880530055 1 3.82213e-05 2.01253 5.19921 0 
29 1574900891 2 1.95901e-05 2.27993 3.74845 0 
30 1762478511 1 6.07651e-05 2.39156 3.52247 0 
22 1384094719 1 5.90311e-05 2.23526 6.15664 0 
19 477435810 1 8.2102e-05 2.87857 7.11513 0 
29 538770290 1 1.32024e-05 2.22343 3.86851 0 
23 346279723 1 7.27371e-05 2.12712 5.84723 0 
28 1811330431 2 6.51981e-05 2.16667 4.03106 0 
22 403954947 2 7.69614e-05 2.30439 6.30354 0 
22 1982151049 1 1.49109e-05 2.29584 6.28536 0 
28 1019648887 1 1.71388e-05 2.1415 4.10851 0 
30 1622449362 2 5.10047e-05 2.39429 3.51817 0 
26 1242889341 2 8.72426e-05 2.00418 4.93362 0 
20 1664131697 1 3.4401e-05 2.70862 6.92735 0 
34 827725235 2 2.93615e-05 3.50395 2.40576 0 
24 2145994996 2 6.2933e-05 2.04317 5.47831 0 
26 1939375905 2 6.69832e-05 2.00765 4.87841 0 
29 1133295711 1 4.21869e-05 2.35705 3.58456 0 
24 18258719 1 7.25208e-05 2.07751 5.65831 0 
25 1889491301 1 8.64633e-05 2.01745 5.27742 0 
21 662510445 1 3.71108e-05 2.41234 6.51028 0 
27 1501484030 2 8.7231e-05 2.03032 4.58907 0 
24 2011439325 1 3.86307e-05 2.05626 5.54691 0 
21 528260945 2 5.20071e-05 2.39379 6.48105 0 
28 164134238 2 7.38569e-05 2.13277 4.13539 0 
20 595329297 2 9.48807e-05 2.7991 7.03672 0 
25 394733255 2 7.46624e-05 2.00043 5.00677 0 
24 31914450 2 4.57512e-05 2.07494 5.64484 0 
28 1826333413 2 2.12711e-05 2.18004 3.98991 0 
25 605442626 2 2.84557e-05 2.00221 5.03515 0 
31 1977903 1 3.46022e-05 2.62698 3.17133 0 
22 1253216145 1 7.40244e-05 2.22233 6.12915 0 
24 624809561 1 3.14591e-05 2.0286 5.40191 0 
26 367937631 1 7.32376e-05 2.00453 4.92806 0 
25 1842553037 1 7.93935e-05 2.01919 5.30496 0 
ITEM: TIMESTEP
200
ITEM: NUMBER OF TALLIES
167
ITEM: BOX BOUNDS oo rr pp
0 10
0 10
-0.5 0.5
ITEM: TALLIES c_1[1] c_1[2] c_1[3] c_1[4] c_1[5] c_1[6] c_1[7] 
33 1648543794 2 9.23901e-05 3.2667 2.55843 0 
16 178957004 2 7.93725e-05 3.72403 7.71502 0 
45 1222780766 2 1.87388e-05 7.37446 3.17308 0 
21 1011443638 1 4.34596e-05 2.48797 6.62945 0 
20 557631417 1 1.08332e-05 2.64134 6.84603 0 
20 216192025 1 8.41169e-05 2.75207 6.97987 0 
35 605397338 2 9.02566e-05 3.91464 2.20951 0 
13 1652268340 1 2.247e-05 5.18755 7.99408 0 
14 1374966837 2 2.24782e-05 4.69174 7.97893 0 
16 796932996 2 7.53187e-05 3.92665 7.79524 0 
22 1022440116 2 2.94074e-08 2.34827 6.39678 0 
14 283999556 2 8.80705e-05 4.48277 7.95254 0 
19 1473526849 1 6.88604e-06 3.03242 7.25961 0 
21 1433972281 1 8.7511e-05 2.44971 6.56916 0 
14 1191517665 2 2.9756e-05 4.45461 7.94898 0 
19 1749613652 1 9.00346e-05 2.87061 7.10765 0 
22 1153198497 1 5.11678e-05 2.29326 6.27988 0 
20 1635700315 1 7.51027e-05 2.72051 6.94173 0 
15 595631557 2 6.97886e-05 4.23423 7.89458 0 
15 218152581 2 7.24961e-05 4.35564 7.92575 0 
15 587723685 2 8.99137e-05 4.29807 7.91097 0 
33 1364217105 1 3.575e-05 3.09016 2.68669 0 
21 1009690999 1 9.03911e-05 2.3968 6.48578 0 
14 1760912377 2 9.23581e-05 4.72709 7.9834 0 
19 157939414 2 2.60245e-05 2.83977 7.07869 0 
19 1050779210 2 8.99746e-05 2.83839 7.0774 0 
23 1156116195 1 5.77361e-05 2.14061 5.88876 0 
20 1384337606 1 5.9711e-05 2.79268 7.02896 0 
13 719171436 2 1.16687e-05 5.01298 7.99408 0 
20 917387776 1 1.09879e-05 2.76714 6.99809 0 
33 1574400059 2 6.49612e-05 3.38799 2.4703 0 
16 2082430034 1 5.28104e-05 3.73531 7.71949 0 
36 1030223608 1 7.7253e-05 4.37017 2.07052 0 
20 1790792329 1 8.05116e-05 2.61114 6.80952 0 
13 893420903 1 5.97644e-05 5.10541 7.99408 0 
29 1425022276 2 4.6423e-05 2.21779 3.8805 0 
16 1322330076 1 6.53792e-05 4.06357 7.84946 0 
35 1913514586 2 2.28285e-05 3.90831 2.21201 0 
21 692393084 2 8.1508e-06 2.4332 6.54315 0 
16 440973736 1 9.19545e-05 3.93985 7.80047 0 
15 1971232231 2 2.10124e-05 4.13365 7.86875 0 
32 656391474 1 6.97597e-05 3.03858 2.73461 0 
12 492972656 1 3.40372e-05 5.28109 7.98237 0 
25 1721253012 2 5.90916e-05 2.00224 5.03561 0 
15 79789638 2 3.36223e-05 4.21606 7.88991 0 
20 588293825 2 9.14306e-07 2.8051 7.04397 0 
23 7286893 1 9.17894e-05 2.14897 5.91448 0 
34 180182835 1 2.24848e-05 3.53681 2.38769 0 
17 680219310 2 3.45553e-05 3.44249 7.56046 0 
15 780033188 2 2.85995e-05 4.21035 7.88845 0 
18 17858635 1 3.31604e-05 3.12579 7.3392 0 
22 639639628 2 6.40314e-05 2.30473 6.30427 0 
22 1667492838 1 2.23163e-05 2.24727 6.18215 0 
14 1743454505 2 8.89241e-05 4.70567 7.98069 0 
29 77163717 2 1.99829e-05 2.23458 3.84481 0 
35 1558446214 1 6.73452e-05 3.73032 2.28249 0 
11 612333987 1 6.34763e-05 5.60738 7.93525 0 
19 1676333800 2 5.49288e-05 2.99515 7.22461 0 
13 200373154 1 8.80326e-05 4.86928 7.99408 0 
37 1656428682 1 2.36378e-05 4.57044 2.03639 0 
21 240987058 2 1.83744e-05 2.55257 6.73125 0 
42 767415728 1 9.7124e-05 6.37367 2.33848 0 
17 554225027 2 8.05525e-05 3.50302 7.59373 0 
38 5028914 1 2.5445e-05 4.83206 2.00592 0 
39 675623880 1 3.31036e-05 5.33242 2.02412 0 
24 1098969799 2 5.39379e-05 2.04727 5.4998 0 
33 1036977073 2 5.7056e-05 3.13566 2.65363 0 
38 52223168 1 2.44933e-05 4.96778 2.00592 0 
27 347808171 1 8.11197e-05 2.03933 4.54182 0 
15 1611109259 2 1.69481e-05 4.1261 7.86682 0 
32 477812141 1 8.81484e-05 3.0471 2.72662 0 
14 517852891 2 7.51268e-05 4.54335 7.96019 0 
22 287234306 1 4.50914e-05 2.3025 6.29952 0 
26 702350450 1 5.4176e-05 2.01567 4.75093 0 
35 514493324 1 5.96344e-05 4.05833 2.15262 0 
35 600811859 2 7.36555e-05 4.03563 2.16161 0 
19 1325283727 1 8.04176e-05 3.05648 7.28219 0 
19 1506455822 2 1.17601e-05 2.89407 7.12968 0 
31 401925693 1 8.21419e-05 2.64013 3.15544 0 
16 1002491722 1 7.77763e-05 3.95212 7.80533 0 
23 1944640156 1 8.9548e-05 2.13506 5.87167 0 
24 90103122 2 1.28521e-05 2.08727 5.70948 0 
29 2017412656 2 3.01823e-05 2.31363 3.67682 0 
23 1838203281 1 6.18496e-05 2.19527 6.05697 0 
22 1323935580 2 6.14174e-06 2.30079 6.29588 0 
35 610408325 2 3.74273e-05 3.72273 2.28549 0 
27 434024391 1 5.6054e-05 2.02856 4.59829 0 
34 2079736991 1 4.75466e-05 3.48957 2.41366 0 
31 1018975267 1 3.57325e-05 2.67168 3.1173 0 
35 1563057255 1 5.11341e-05 3.89139 2.21871 0 
22 1801528311 1 7.78173e-05 2.26546 6.2208 0 
14 1474714251 2 5.83315e-05 4.64539 7.97308 0 
21 1543986131 1 3.21185e-05 2.42054 6.5232 0 
27 1379994251 2 8.98255e-06 2.04152 4.53035 0 
21 2051496110 1 1.01613e-05 2.38776 6.47155 0 
21 301181270 2 1.69067e-05 2.57198 6.76183 0 
35 348786017 1 1.16106e-05 3.93137 2.20289 0 
23 1027489911 2 3.01446e-05 2.10775 5.7876 0 
17 1949545861 1 3.67309e-05 3.42865 7.55285 0 
26 468757901 2 1.92918e-05 2.00884 4.85943 0 
22 1283291982 2 1.64237e-05 2.21504 6.11366 0 
23 67435882 1 9.84367e-05 2.09965 5.7627 0 
33 299175509 1 2.72913e-06 3.30716 2.52903 0 
30 1831232043 2 6.09936e-05 2.44197 3.44303 0 
23 1505250175 2 3.65253e-05 2.15698 5.93914 0 
39 34782957 1 1.1422e-05 5.36346 2.02804 0 
36 1040944639 1 4.82245e-05 4.3677 2.07115 0 
22 1732027730 1 6.46061e-05 2.31291 6.32163 0 
34 2107745037 1 7.91687e-05 3.48082 2.41847 0 
28 806305596 2 1.0077e-05 2.19327 3.94918 0 
32 1719232713 1 7.43482e-05 2.8499 2.91179 0 
34 699524945 2 1.59283e-05 3.5067 2.40424 0 
24 2031141014 1 8.90053e-05 2.07921 5.66722 0 
21 1567281147 2 6.86794e-05 2.43331 6.54333 0 
24 2112519611 2 2.11018e-06 2.06822 5.60963 0 
29 1628433954 2 4.3204e-05 2.35966 3.579 0 
31 790349092 2 1.81199e-05 2.6156 3.18508 0 
26 725044778 2 2.01466e-05 2.00328 4.9478 0 
35 779013496 1 1.50847e-05 4.01092 2.17139 0 
38 1776939284 2 9.57158e-05 4.91074 2.00592 0 
25 451609709 1 3.54513e-05 2.00283 5.04498 0 
33 1876629961 2 6.30767e-05 3.20588 2.60262 0 
20 2044007308 2 9.4541e-05 2.66553 6.87527 0 
33 1993855654 1 7.96817e-05 3.3072 2.52901 0 
31 286933963 2 5.32489e-05 2.69675 3.087 0 
26 887214033 1 5.95535e-05 2.02085 4.66859 0 
40 2130686983 1 5.35454e-05 5.75338 2.10224 0 
30 1004702287 2 1.31755e-05 2.38368 3.53488 0 
23 781881182 2 4.24559e-05 2.13188 5.86188 0 
27 1262028819 2 7.7954e-05 2.08722 4.29078 0 
37 1417194107 1 1.90604e-05 4.44413 2.05235 0 
32 154902883 1 7.23636e-05 2.86487 2.89774 0 
28 1674894159 1 6.77621e-05 2.19156 3.95445 0 
37 1541661768 2 7.82333e-05 4.73188 2.01599 0 
36 1991271853 1 2.37139e-05 4.23496 2.10523 0 
25 1414942832 1 8.47336e-05 2.00592 5.0941 0 
26 1930334264 2 3.34081e-05 2.00084 4.98666 0 
24 1440185873 1 6.18112e-05 2.05799 5.55599 0 
30 1184871997 1 7.40761e-05 2.46086 3.41327 0 
27 809769598 1 8.25609e-05 2.08983 4.27708 0 
26 843864646 1 7.06133e-05 2.00819 4.86974 0 
28 1076979253 1 6.10193e-07 2.14344 4.10253 0 
32 1387156884 2 5.8131e-05 2.85263 2.90923 0 
33 1881209783 1 5.73269e-05 3.32596 2.51538 0 
30 1301859639 2 5.39423e-05 2.38698 3.52968 0 
26 312271513 2 4.12473e-05 2.02271 4.63904 0 
31 514013160 2 8.89153e-05 2.7121 3.06844 0 
29 1503536612 1 2.76565e-05 2.25616 3.79895 0 
34 1972613282 1 5.11299e-05 3.53595 2.38816 0 
28 1668584423 1 6.80697e-05 2.12919 4.14639 0 
35 1454711252 2 7.09513e-05 3.89371 2.2178 0 
26 41421980 2 1.71684e-05 2.00325 4.94829 0 
33 367755200 1 5.60464e-05 3.33786 2.50673 0 
32 887692090 1 7.61904e-05 2.82954 2.93091 0 
28 1647409332 1 1.44563e-05 2.15985 4.05203 0 
34 753129732 2 2.83145e-05 3.45334 2.43358 0 
33 927128714 2 2.18833e-05 3.21766 2.59406 0 
30 620180508 2 3.96608e-05 2.42433 3.47083 0 
26 124479409 1 3.33541e-05 2.01859 4.70449 0 
35 344820963 1 8.25128e-05 4.03283 2.16271 0 
28 866999441 1 3.17624e-05 2.18158 3.98514 0 
27 2077444210 2 1.82134e-05 2.08824 4.28544 0 
27 1044680992 1 7.39873e-05 2.03638 4.55732 0 
32 1918765606 2 9.31328e-05 2.84 2.92109 0 
28 1989626616 1 1.87178e-05 2.19305 3.94984 0 
25 2121087746 1 9.21438e-05 2.00542 5.08616 0 
28 2116536627 2 6.71658e-05 2.10218 4.22954 0 
ITEM: TIMESTEP
300
ITEM: NUMBER OF TALLIES
181
ITEM: BOX BOUNDS oo rr pp
0 10
0 10
-0.5 0.5
ITEM: TALLIES c_1[1] c_1[2] c_1[3] c_1[4] c_1[5] c_1[6] c_1[7] 
17 1041652166 2 7.5003e-05 3.46595 7.57335 0 
11 1319104292 2 9.99511e-05 5.76321 7.89524 0 
17 1663177441 2 5.84706e-06 3.51267 7.59904 0 
16 1803009407 1 4.83195e-05 4.00074 7.82458 0 
12 1303738544 1 9.90215e-05 5.27468 7.98318 0 
14 1749104919 2 9.60285e-05 4.66437 7.97548 0 
16 1728197867 1 2.22596e-06 3.77285 7.73435 0 
32 58228585 1 9.60006e-05 2.93571 2.83122 0 
16 1845194258 1 6.15895e-05 3.77317 7.73448 0 
23 442516338 2 9.19771e-05 2.17787 6.00341 0 
9 1668394422 2 3.65771e-05 6.34837 7.67543 0 
21 1559902707 1 3.58905e-05 2.49062 6.63363 0 
22 1373398174 1 1.35332e-05 2.29588 6.28546 0 
18 1290932424 2 7.85217e-05 3.22704 7.41275 0 
23 2076247907 2 7.96431e-05 2.16498 5.96376 0 
22 213258477 1 7.70545e-05 2.28165 6.2552 0 
24 695571701 2 2.30782e-05 2.04115 5.4677 0 
22 1669898982 2 4.59887e-06 2.35875 6.41905 0 
24 218856973 2 3.66701e-05 2.08339 5.68913 0 
26 178916835 2 6.97831e-05 2.02265 4.64006 0 
15 1109593732 2 6.30531e-05 4.32756 7.91854 0 
20 1580550442 1 4.35925e-05 2.8061 7.04519 0 
19 870150362 2 6.40028e-06 2.94502 7.17753 0 
16 1888851080 2 4.94656e-05 3.82099 7.75341 0 
15 827572433 1 3.33199e-05 4.20134 7.88613 0 
15 524821067 2 3.69903e-05 4.12573 7.86672 0 
15 466743763 1 6.40018e-05 4.08483 7.85622 0 
20 305268704 2 4.25287e-05 2.67426 6.88581 0 
39 125744466 2 1.43185e-05 5.39252 2.03171 0 
17 251651913 1 3.34775e-05 3.53611 7.61193 0 
25 1362609667 1 1.63668e-05 2.01501 5.23852 0 
20 789726960 2 3.21892e-05 2.68252 6.89581 0 
21 336040783 2 3.47465e-05 2.4802 6.6172 0 
18 1819418654 1 7.82826e-05 3.30869 7.47208 0 
12 871220382 1 3.24755e-05 5.5552 7.94774 0 
27 1517520783 1 4.16992e-05 2.05018 4.48496 0 
22 2076216256 1 1.7459e-05 2.22107 6.12647 0 
20 443964936 1 6.82008e-05 2.77739 7.01049 0 
23 1838068445 2 3.40894e-05 2.19841 6.06665 0 
9 1032622788 1 5.70171e-05 6.51244 7.58523 0 
18 1328439491 1 6.21261e-05 3.1894 7.38541 0 
21 172226470 2 9.28493e-05 2.40606 6.50038 0 
21 1502122522 1 3.79936e-05 2.37867 6.45722 0 
23 684891084 1 9.47684e-05 2.15789 5.94193 0 
22 330756191 2 6.77041e-05 2.3052 6.30526 0 
23 1992153032 2 7.60176e-05 2.13492 5.87123 0 
15 1457847182 2 9.9925e-05 4.42958 7.94474 0 
24 1333999680 2 7.47198e-05 2.05777 5.55484 0 
20 285583677 1 9.55309e-05 2.61421 6.81323 0 
18 1505415671 2 7.72836e-05 3.36081 7.50994 0 
25 1551255286 2 2.64542e-05 2.01958 5.31114 0 
22 880534180 1 1.32073e-05 2.26626 6.22251 0 
19 904368416 1 9.77615e-05 3.05306 7.27898 0 
20 1718787312 2 1.23519e-05 2.59024 6.78425 0 
33 1533699287 1 2.59449e-06 3.22889 2.5859 0 
27 123617158 1 6.23559e-06 2.04529 4.51061 0 
22 95662364 1 4.36589e-06 2.27518 6.24147 0 
19 1904461050 2 6.63622e-05 2.99378 7.22332 0 
18 1448047804 2 9.16021e-05 3.26749 7.44215 0 
16 1823195193 1 4.43083e-05 3.75076 7.7256 0 
35 1966113077 1 6.20303e-05 3.72856 2.28318 0 
24 497950716 1 4.52345e-05 2.05217 5.52548 0 
21 1297260601 1 6.57137e-05 2.41044 6.50728 0 
21 451675291 1 1.91058e-05 2.43015 6.53834 0 
19 1108155871 2 2.06157e-05 2.87852 7.11508 0 
22 305822216 1 3.68846e-05 2.26192 6.21329 0 
25 196248690 1 6.58178e-05 2.00146 5.02315 0 
19 524491808 2 1.48911e-05 2.85137 7.08959 0 
26 367065211 1 2.8014e-05 2.02106 4.66524 0 
22 875711599 2 8.6691e-05 2.2365 6.15926 0 
44 1757238971 2 5.1239e-05 6.9355 2.71027 0 
36 1659899649 1 5.01386e-05 4.32836 2.08125 0 
19 1769990682 2 1.29098e-06 2.95149 7.18361 0 
20 1281764920 1 9.03752e-05 2.73392 6.95793 0 
19 1067954447 1 3.38297e-05 2.97302 7.20382 0 
25 1728805190 2 3.2702e-05 2.01304 5.20728 0 
23 819971812 2 6.38861e-05 2.1563 5.93704 0 
11 2015163330 1 8.19252e-05 5.82389 7.87966 0 
18 485327619 1 7.21926e-05 3.26946 7.44358 0 
40 967928975 2 5.09163e-05 5.64056 2.07327 0 
25 528025954 2 6.6698e-05 2.0055 5.08746 0 
16 857912235 2 7.62772e-06 3.84136 7.76148 0 
35 2043377322 2 3.36196e-05 3.75811 2.27148 0 
11 701880050 2 2.37043e-05 5.84205 7.87499 0 
22 565396445 2 1.51446e-05 2.35146 6.40356 0 
16 149083427 2 4.36701e-06 3.9655 7.81063 0 
20 1732338913 1 5.09363e-06 2.66106 6.86986 0 
28 1536615538 2 3.96531e-06 2.1205 4.17315 0 
25 190376538 1 4.13256e-05 2.01919 5.30498 0 
28 1000523763 2 5.90582e-05 2.16354 4.04069 0 
10 1034475400 1 1.18154e-05 6.19058 7.74883 0 
30 507917356 1 1.28565e-05 2.46995 3.39895 0 
20 1087091750 2 5.13892e-05 2.76388 6.99415 0 
35 1652721232 2 9.89623e-06 3.75608 2.27229 0 
26 498583069 1 1.10932e-05 2.02038 4.67607 0 
22 1245387842 1 6.91948e-05 2.25985 6.20888 0 
23 1016958406 1 5.48675e-05 2.12032 5.8263 0 
25 1497376695 2 7.15563e-05 2.00138 5.02194 0 
32 142885755 2 5.56508e-05 2.86902 2.89384 0 
23 833447309 1 8.08582e-05 2.2031 6.08108 0 
27 1312925075 1 8.45326e-05 2.03482 4.56549 0 
20 1766267293 1 2.35329e-05 2.76135 6.99109 0 
19 1129210799 1 5.18619e-05 2.95716 7.18893 0 
36 120491126 2 2.19594e-05 4.11587 2.13581 0 
28 1231412609 2 2.97494e-05 2.17938 3.99194 0 
34 612478341 2 3.70949e-05 3.53119 2.39078 0 
25 2116592610 1 8.37663e-05 2.00898 5.14266 0 
29 756351359 1 2.76257e-05 2.21596 3.88438 0 
24 730626936 2 7.21279e-05 2.05001 5.51417 0 
36 1893398026 1 1.63873e-05 4.14259 2.12895 0 
37 3928677 2 9.85392e-06 4.79492 2.00803 0 
28 172566623 1 9.44826e-05 2.19894 3.93174 0 
11 1039014719 1 8.85928e-05 5.7982 7.88625 0 
28 922865089 1 3.46447e-05 2.12034 4.17364 0 
31 735574240 2 4.58678e-05 2.75392 3.01789 0 
32 1623318773 2 4.14645e-05 2.88961 2.8745 0 
33 701448024 2 9.96343e-05 3.09247 2.68502 0 
13 2001997692 2 3.06492e-05 4.93656 7.99408 0 
29 412634123 2 1.89413e-05 2.24036 3.83253 0 
29 1903530112 2 5.11033e-05 2.22946 3.85571 0 
34 188172094 2 8.68264e-05 3.5969 2.35465 0 
29 1249565445 1 4.077e-05 2.21094 3.89505 0 
28 237559629 2 3.52938e-05 2.16616 4.03262 0 
28 1481694565 1 1.41418e-05 2.12111 4.17126 0 
31 964102350 1 5.66983e-05 2.74192 3.0324 0 
29 715533193 1 2.61544e-05 2.37056 3.55584 0 
32 1573713382 2 6.67883e-05 2.98498 2.78495 0 
36 1827193167 1 5.39904e-05 4.32374 2.08244 0 
28 1280756491 1 7.85235e-05 2.20558 3.9113 0 
31 2068980793 2 5.59899e-05 2.68296 3.10366 0 
34 2050872017 1 3.956e-05 3.667 2.31612 0 
29 1975223914 2 3.62178e-08 2.34277 3.6149 0 
32 342214504 2 6.49464e-05 2.87326 2.88986 0 
33 1837604597 1 1.0034e-05 3.38499 2.47249 0 
33 761130281 2 3.2667e-05 3.32822 2.51373 0 
31 897957874 2 6.4179e-05 2.67409 3.11438 0 
28 944610885 1 8.75059e-05 2.16565 4.03418 0 
37 552447289 1 8.46063e-05 4.48913 2.04666 0 
30 1181031781 2 3.71955e-05 2.38319 3.53565 0 
24 1201187455 1 5.84602e-05 2.03438 5.4322 0 
32 56132130 2 2.1281e-05 2.91636 2.84939 0 
33 1368415389 2 7.01405e-05 3.34971 2.49812 0 
33 1633177056 2 7.45927e-05 3.1485 2.64431 0 
31 587118155 1 9.4012e-11 2.66845 3.12121 0 
38 1525093747 1 2.63042e-05 4.97137 2.00592 0 
25 1954861190 1 6.88449e-05 2.00781 5.12422 0 
29 724070898 2 2.02755e-05 2.32522 3.65221 0 
33 66006148 1 8.27115e-05 3.25717 2.56535 0 
17 277979691 1 1.59559e-05 3.54378 7.61614 0 
42 1364662813 2 2.25135e-05 6.39059 2.34778 0 
35 162682720 2 5.59645e-05 3.92064 2.20713 0 
36 1864416390 1 8.11366e-05 4.43706 2.05334 0 
31 2035846593 2 7.63895e-05 2.61037 3.19141 0 
33 1504423304 1 9.72942e-05 3.29351 2.53895 0 
37 498464356 2 8.50695e-05 4.54019 2.04021 0 
12 1550503957 2 8.51116e-05 5.3571 7.97276 0 
26 1470099341 2 9.97971e-05 2.02272 4.6389 0 
31 981035162 1 1.40342e-05 2.64439 3.15029 0 
30 2009183365 2 4.87139e-05 2.44302 3.44138 0 
28 747971281 1 4.64826e-05 2.12068 4.17258 0 
35 520152500 2 3.30791e-05 4.05377 2.15442 0 
36 896628945 2 1.63097e-06 4.10237 2.13928 0 
32 798490589 1 2.80285e-05 3.07681 2.69872 0 
29 1886863884 1 7.28462e-05 2.32174 3.65959 0 
28 1196026678 1 7.26441e-06 2.1961 3.94046 0 
31 187622085 2 9.27595e-05 2.73855 3.03646 0 
28 2096854411 1 9.64267e-05 2.13091 4.14109 0 
30 778417230 1 2.24281e-06 2.57155 3.23885 0 
32 172390611 2 4.10392e-05 2.88983 2.8743 0 
33 1752607626 1 8.0088e-05 3.09388 2.68399 0 
30 1614811445 1 2.81762e-05 2.40344 3.50374 0 
33 918529000 2 3.79453e-05 3.35015 2.4978 0 
33 1719720767 1 8.44253e-05 3.38681 2.47117 0 
31 450389967 1 2.15808e-05 2.75146 3.02087 0 
35 470888252 2 9.24607e-05 3.87806 2.22399 0 
32 1025017949 2 4.25116e-05 2.86542 2.89723 0 
34 700579057 2 6.54132e-05 3.57473 2.36685 0 
28 1228536230 2 3.89105e-05 2.09984 4.23672 0 
29 1255592310 1 6.35162e-05 2.22637 3.86226 0 
34 17981756 1 4.27286e-06 3.56088 2.37446 0 
30 346847129 1 4.39113e-05 2.39875 3.51113 0 
ITEM: TIMESTEP
400
ITEM: NUMBER OF TALLIES
191
ITEM: BOX BOUNDS oo rr pp
0 10
0 10
-0.5 0.5
ITEM: TALLIES c_1[1] c_1[2] c_1[3] c_1[4] c_1[5] c_1[6] c_1[7] 
11 1698262604 2 8.05442e-05 5.85214 7.8724 0 
17 1041652166 2 7.12691e-05 3.62687 7.66182 0 
21 443635295 2 8.37161e-05 2.44019 6.55416 0 
14 1598516732 2 9.58841e-05 4.50768 7.95568 0 
20 2121484133 2 3.57231e-05 2.74 6.96529 0 
13 1703812099 2 1.05115e-06 5.06902 7.99408 0 
11 165246470 2 8.94385e-05 5.83009 7.87807 0 
23 1894105652 1 1.43805e-05 2.10608 5.78249 0 
18 572217023 2 1.61251e-05 3.32426 7.48339 0 
16 463489406 1 8.46754e-05 3.78691 7.73992 0 
21 478598704 1 6.58454e-05 2.56146 6.74525 0 
18 1319069395 1 9.10377e-05 3.19083 7.38645 0 
29 1034225736 2 2.46975e-06 2.34387 3.61257 0 
23 368423469 1 1.99005e-05 2.18068 6.01208 0 
16 1751398462 2 3.75705e-05 3.83951 7.76074 0 
18 802098353 1 1.21461e-05 3.19423 7.38892 0 
21 1836313629 2 3.07009e-05 2.4377 6.55023 0 
11 2116113628 1 6.42756e-05 5.85592 7.87143 0 
9 1585253691 2 7.44645e-06 6.39449 7.65008 0 
19 1832206154 1 4.23187e-05 3.00859 7.23722 0 
20 1089171961 2 8.40571e-05 2.59627 6.79154 0 
14 1824385620 1 1.03769e-05 4.44879 7.94824 0 
39 793433501 1 1.10539e-05 5.26777 2.01595 0 
12 1625048146 2 3.70899e-05 5.30128 7.97982 0 
18 655519159 1 6.23634e-05 3.322 7.48175 0 
16 1309541674 2 5.51005e-05 3.85445 7.76666 0 
16 637609416 2 1.72322e-05 3.79593 7.74349 0 
25 1739546807 2 4.75995e-05 2.01808 5.28739 0 
18 27359892 1 6.36087e-05 3.37702 7.52172 0 
10 403325840 2 6.24602e-05 6.049 7.80489 0 
13 1565397804 2 5.94963e-05 4.94615 7.99408 0 
23 1459639403 1 3.128e-05 2.20962 6.10113 0 
21 1576226924 2 5.92236e-05 2.37245 6.44742 0 
22 384096184 1 2.66139e-05 2.26364 6.21694 0 
20 1157919626 1 2.33732e-05 2.78964 7.02529 0 
16 1387867828 1 8.52306e-05 3.77611 7.73564 0 
19 1085832347 1 3.77671e-05 3.05577 7.28152 0 
22 1119011777 1 3.04416e-05 2.21646 6.11668 0 
19 2032724461 2 7.63039e-05 2.95752 7.18927 0 
18 262874190 1 3.05132e-05 3.15695 7.36183 0 
16 1278552817 2 6.2499e-05 4.02003 7.83222 0 
32 1686221092 1 2.38877e-05 3.02875 2.74384 0 
18 2095849011 2 1.63338e-05 3.3605 7.50972 0 
21 751702970 1 7.36327e-05 2.3729 6.44812 0 
29 983002431 2 5.89712e-05 2.24751 3.81734 0 
26 1945657219 1 3.38794e-05 2.01203 4.80874 0 
10 1267910536 1 3.33804e-05 6.05038 7.80434 0 
19 1137967078 2 7.52587e-05 2.95644 7.18825 0 
28 51838356 2 3.07404e-05 2.10271 4.22788 0 
14 1939239935 2 1.2841e-06 4.67775 7.97717 0 
22 1831990474 1 7.2612e-05 2.28767 6.268 0 
16 1877085238 2 9.46574e-05 3.80989 7.74902 0 
18 2006565634 2 7.70407e-05 3.22288 7.40974 0 
15 567154988 1 2.31329e-05 4.09233 7.85815 0 
24 1073694346 1 1.9292e-05 2.08031 5.673 0 
25 2041547621 1 3.23445e-05 2.00994 5.15799 0 
22 1428911476 1 2.64126e-05 2.335 6.36859 0 
24 1196940868 2 8.4735e-05 2.08559 5.70067 0 
18 783103656 2 4.36574e-05 3.28194 7.45264 0 
25 1496996981 2 2.79806e-05 2.01108 5.17608 0 
12 1468804344 1 6.22957e-05 5.31726 7.9778 0 
15 904368416 1 5.40745e-05 4.13028 7.86789 0 
21 141923945 2 8.32931e-05 2.39464 6.48238 0 
21 1696287074 2 2.15868e-05 2.41121 6.5085 0 
24 363937004 1 8.98492e-05 2.05441 5.53722 0 
40 1928039787 2 2.36947e-05 5.82703 2.12115 0 
42 1975276402 2 8.28172e-05 6.30534 2.30091 0 
18 1395774049 1 4.26322e-05 3.37117 7.51747 0 
22 2029409771 2 7.42859e-05 2.32352 6.34419 0 
21 332931596 2 5.22606e-05 2.51139 6.66635 0 
14 711491519 2 4.64849e-05 4.72521 7.98316 0 
27 976467787 2 1.17465e-05 2.07764 4.34098 0 
35 408246423 2 2.16468e-05 3.80489 2.25296 0 
18 1395437818 2 8.85346e-05 3.39221 7.53276 0 
16 681762170 2 2.72809e-05 3.74439 7.72308 0 
19 137146829 1 5.92156e-06 3.05511 7.28091 0 
24 2062575120 2 3.50569e-05 2.03452 5.43294 0 
31 347115771 1 8.55011e-05 2.75717 3.01396 0 
31 987710534 1 7.72008e-05 2.79357 2.96995 0 
21 512125605 1 9.02346e-05 2.50992 6.66405 0 
31 645103932 2 8.59126e-05 2.63825 3.15771 0 
21 240116737 1 8.31354e-05 2.56782 6.75528 0 
22 2107190308 1 9.82091e-05 2.23744 6.16125 0 
25 710064542 2 7.15978e-05 2.00868 5.13789 0 
24 1592086290 1 5.61771e-05 2.03607 5.44106 0 
26 1704038727 2 7.98212e-05 2.02211 4.64863 0 
39 1517887717 2 8.75976e-05 5.45949 2.04017 0 
16 1805622295 1 2.50535e-05 4.03864 7.83959 0 
21 1435514866 2 7.87468e-05 2.37533 6.45196 0 
26 1278819072 1 2.44918e-06 2.01043 4.83419 0 
21 1705604879 2 2.5608e-05 2.42799 6.53494 0 
9 1137060514 1 2.69152e-05 6.56437 7.55668 0 
22 782644769 2 4.79077e-05 2.21102 6.10511 0 
25 341913887 1 3.21695e-05 2.01404 5.22322 0 
24 1654796717 2 7.68264e-05 2.04258 5.47522 0 
25 1546925016 2 3.89165e-05 2.00084 5.01335 0 
27 146839788 2 3.90996e-05 2.0601 4.43296 0 
46 300344421 2 1.26938e-05 7.4449 3.26477 0 
22 1518646340 1 4.60918e-05 2.32138 6.33965 0 
30 1659777850 2 5.68449e-05 2.38585 3.53147 0 
32 952083999 1 2.38137e-06 2.82767 2.93267 0 
34 1483631120 2 8.44305e-05 3.52953 2.39169 0 
31 751733979 1 7.32186e-05 2.64434 3.15035 0 
26 20548392 2 4.11791e-05 2.00822 4.86934 0 
8 1851342042 1 8.15805e-05 6.87958 7.33529 0 
28 1547964598 1 8.55464e-05 2.10265 4.22807 0 
17 78442810 2 9.02008e-05 3.54764 7.61826 0 
30 1030807996 2 8.4138e-05 2.56291 3.25247 0 
23 1296238341 1 2.22884e-05 2.13602 5.87462 0 
25 2079657418 1 1.45666e-05 2.01884 5.29941 0 
38 1089795000 1 1.55106e-05 5.04438 2.00592 0 
37 2027113540 2 4.27994e-05 4.45242 2.0513 0 
26 743150221 2 2.03697e-05 2.00421 4.93305 0 
27 209768837 1 1.92877e-05 2.0939 4.25576 0 
13 1239391582 1 7.52481e-05 5.07581 7.99408 0 
27 1542719109 2 3.52261e-06 2.05137 4.47872 0 
36 1212681058 1 2.66123e-05 4.40806 2.06079 0 
20 2118388144 1 3.53344e-05 2.68897 6.9036 0 
23 340679399 1 7.37442e-05 2.10403 5.77616 0 
37 497120978 1 2.55188e-06 4.62895 2.029 0 
10 1570906576 1 8.21564e-05 6.03612 7.80998 0 
37 1263422807 2 6.04979e-05 4.77901 2.01004 0 
14 240965409 2 6.68072e-05 4.61708 7.9695 0 
30 1422407581 2 5.958e-05 2.53249 3.3004 0 
22 1004360412 1 9.23182e-05 2.26774 6.22566 0 
33 1465769316 1 3.60663e-05 3.13615 2.65328 0 
39 1709900776 2 6.27559e-05 5.37698 2.02975 0 
30 765261939 1 2.48295e-05 2.52529 3.31174 0 
32 742865679 1 4.6286e-05 2.99899 2.77179 0 
34 1830180291 1 5.10339e-05 3.41714 2.45348 0 
27 1371872535 2 6.46576e-05 2.02795 4.60151 0 
34 177014897 1 6.64212e-05 3.49157 2.41256 0 
40 1991774332 2 5.72671e-05 5.72238 2.09428 0 
29 637281947 2 5.16085e-05 2.3683 3.56065 0 
38 1107606931 1 8.44497e-05 4.86389 2.00592 0 
30 1584665996 1 4.93274e-05 2.39216 3.52153 0 
29 178376513 2 2.22672e-05 2.34774 3.60435 0 
17 1407780881 2 8.13282e-05 3.47254 7.57697 0 
28 251546201 2 9.4357e-05 2.10566 4.21883 0 
17 1156969905 1 5.58558e-05 3.62685 7.66181 0 
29 1941148189 1 3.68534e-06 2.23376 3.84655 0 
33 1810535557 1 3.69838e-05 3.23247 2.5833 0 
30 2076923905 1 7.46016e-05 2.55865 3.25918 0 
33 814143176 1 9.12775e-05 3.16964 2.62895 0 
28 1466526136 1 6.2674e-05 2.11965 4.17577 0 
28 183233876 1 9.8398e-05 2.196 3.94078 0 
36 1123967516 1 9.21764e-07 4.22502 2.10778 0 
15 1505601454 1 2.75951e-05 4.1915 7.88361 0 
33 1533846532 2 9.06345e-05 3.21582 2.59539 0 
29 2069539613 2 5.19344e-05 2.32449 3.65375 0 
38 2137308021 2 4.65598e-05 4.91365 2.00592 0 
37 1965536211 1 4.24156e-05 4.45171 2.05139 0 
42 1422788811 2 4.96e-05 6.52667 2.42259 0 
36 1294318171 2 9.88922e-05 4.20579 2.11272 0 
33 590044664 2 2.49512e-05 3.12697 2.65995 0 
39 517898333 1 1.60112e-05 5.34171 2.02529 0 
44 1468760380 2 3.39709e-06 7.10104 2.86572 0 
27 1497508594 1 5.39219e-05 2.04839 4.49436 0 
33 1209308484 1 5.84437e-05 3.25152 2.56946 0 
34 2134042102 2 2.6644e-05 3.53389 2.3893 0 
37 2145629552 1 6.02984e-05 4.65061 2.02626 0 
34 142741133 2 7.42625e-05 3.5505 2.38017 0 
34 105913657 2 9.88263e-05 3.55779 2.37616 0 
31 1577262331 1 6.2711e-05 2.64681 3.14737 0 
34 476715473 2 4.10566e-05 3.61349 2.34554 0 
34 834970738 2 1.08374e-05 3.42992 2.44645 0 
33 610469140 2 5.07327e-05 3.30481 2.53074 0 
34 934304958 2 1.16657e-05 3.48246 2.41757 0 
35 504714199 1 6.39429e-05 4.05696 2.15316 0 