ITEM: TIMESTEP
0
ITEM: NUMBER OF TALLIES
0
ITEM: BOX BOUNDS rr rr rr
0 0.0001
0 0.0001
0 0.0001
ITEM: TALLIES c_1[1] c_1[2] c_1[3] c_1[4] c_1[5] c_1[6] c_1[7] c_1[8] c_1[9] c_1[10] c_1[11] c_1[12] c_1[13] c_1[14] c_1[15] 
ITEM: TIMESTEP
500
ITEM: NUMBER OF TALLIES
712
ITEM: BOX BOUNDS rr rr rr
0 0.0001
0 0.0001
0 0.0001
ITEM: TALLIES c_1[1] c_1[2] c_1[3] c_1[4] c_1[5] c_1[6] c_1[7] c_1[8] c_1[9] c_1[10] c_1[11] c_1[12] c_1[13] c_1[14] c_1[15] 
1 1541367883 1878745612 271.046 253.675 -410.766 190.715 343.52 -96.3843 256.117 168.807 -149.374 205.645 428.388 -357.776 
4 391752597 1538660578 388.192 336.501 -458.921 -241.17 15.9742 384.999 214 700.1 -129.641 -66.9789 -347.625 55.7191 
8 1424040547 989889789 112.684 91.9772 332.542 -1.2425 -41.0887 292.449 113.379 6.6475 378.794 -1.93799 44.2409 246.197 
10 1472602351 929614809 -49.1362 23.748 -263.851 104.643 131.856 -129.799 73.6473 83.0187 -302.622 -18.1405 72.5858 -91.0288 
11 1905901935 2110433036 275.703 -225.18 -51.4151 151.168 -93.7371 -156.233 179.676 -249.282 -145.48 247.196 -69.6347 -62.1681 
13 191522523 256201267 -172.802 24.1355 343.425 216.151 146.946 381.905 -113.156 -10.0836 241.675 156.505 181.166 483.655 
13 786894938 93153837 -349.197 324.05 383.776 -544.464 -286.177 716.472 -500.563 -215.789 281.209 -393.098 253.662 819.039 
19 1112207943 227582970 -358.775 -92.1562 120.571 211.073 80.724 -17.0618 -137.923 -211.65 268.261 -9.77924 200.218 -164.752 
20 1276180717 1004294334 304.727 6.35667 -36.1909 593.189 -299.598 -215.07 422.239 69.2008 -55.5501 475.678 -362.442 -195.711 
21 2021920449 648993212 294.842 160.583 -201.72 -24.9772 -334.265 -115.589 369.507 -194.949 -306.748 -99.6427 21.2673 -10.561 
22 1666943434 2141910838 -35.3407 52.8267 -185.394 217.825 248.466 -91.0695 76.6618 162.938 27.4563 105.823 138.355 -303.92 
22 1979252529 433000853 389.403 167.932 -50.757 275.464 -9.57425 338.158 143.374 -34.7749 129.301 521.493 193.132 158.099 
23 1321354225 1740684627 168.733 216.705 375.017 -244.354 -424.112 225.172 -205.556 -364.286 534.388 129.935 156.879 65.8006 
26 865971326 1522049502 -112.788 233.554 172.838 429.873 33.9721 -205.954 -52.0523 400.324 -80.1535 369.137 -132.798 47.0375 
27 1682695920 171580997 216.628 85.8117 -277.73 502.837 51.5399 -258.467 325.372 -48.192 -345.729 394.093 185.544 -190.468 
29 89673372 220310499 112.297 27.5396 -101.71 69.5124 -299.093 54.1216 17.0678 -38.7728 111.628 164.742 -232.78 -159.216 
31 1881685045 1995364134 10.0154 298.315 -235.829 -76.677 -384.005 261.824 -237.346 322.974 -55.8388 170.684 -408.663 81.834 
32 386212499 1664058730 -24.4042 343.809 65.3979 57.6007 -120.106 313.549 -248.377 86.3996 184.969 281.574 137.304 193.978 
35 1389827918 796158158 -127.439 -195.43 168.471 -62.0632 -154.608 -15.6411 -77.333 -228.459 -6.04807 -112.169 -121.578 158.878 
36 776616769 1433497200 327.135 -197.789 -261.898 -1.53525 167.173 -257.279 -22.466 -172.222 -222.639 348.066 141.606 -296.538 
37 1701227016 60933916 227.021 -232.141 147.576 -337.201 -28.164 68.1628 201.315 -115.989 267.935 -311.495 -144.316 -52.1963 
38 1733866979 828170744 54.2716 -98.5838 141.857 105.772 63.5827 -14.5876 121.887 -65.6598 159.99 38.1571 30.6587 -32.7206 
39 286120464 675284792 -93.0625 -160.518 -152.273 97.6061 55.2559 651.419 68.6632 -12.8057 -170.206 -64.1195 -92.456 669.352 
40 233202784 1840874792 -65.7031 -118.216 -462.845 61.7414 319.908 114.641 215.951 -15.0816 -447.027 -219.912 216.773 98.8225 
43 1319402513 646322050 28.3961 647.552 -505.032 238.907 87.7038 384.412 170.352 169.404 -556.873 96.9503 565.851 436.253 
45 1267782297 2001085284 -114.313 168.021 -142.429 53.4111 -103.911 387.593 247.08 127.056 221.078 -307.982 -62.9457 24.0855 
46 351635193 2136342424 261.645 -82.9333 114.225 -62.9404 -208.659 -378.79 -33.4743 122.95 -166.767 232.179 -414.543 -97.7988 
48 21989158 1927210607 -191.131 191.647 -76.3336 95.5721 -14.0659 -172.605 -156.173 88.6321 -271.769 60.6136 88.9492 22.8302 
49 1024929790 233008149 -163.982 -156.293 398.262 102.449 353.124 450.84 -228.513 178.948 618.779 166.981 17.8829 230.323 
49 687176229 578109836 211.562 298.644 -46.7172 -385.173 -57.7078 -51.1787 -268.246 195.132 -335.792 94.6343 45.805 237.896 
50 320717951 1578153562 -203.554 681.991 -30.2353 5.64989 50.1149 -282.756 -286.708 659.036 -81.6006 88.8033 73.0705 -231.39 
53 971839203 112081288 -4.38355 -69.6967 -502.087 -71.0202 170.777 -188.752 -227.153 77.8132 -404.377 151.749 23.2673 -286.461 
54 1416515256 614449003 109.72 -84.6147 51.5831 238.157 184.761 7.19614 287.028 96.4298 117.815 60.8484 3.71629 -59.0358 
55 381989192 872874082 146.536 -27.0342 567.968 -64.1788 301.193 512.712 233.027 171.51 568.724 -150.67 102.649 511.957 
58 1465595878 1639116541 -10.557 619.927 -23.7621 21.2262 449.615 -34.1996 10.7734 491.33 45.9498 -0.104235 578.212 -103.912 
59 1976613948 387478359 -168.403 100.87 163.292 250.145 250.885 85.1021 21.2745 279.238 -75.5092 60.4678 72.517 323.903 
60 1053132541 528053885 34.4477 -203.162 -116.953 -3.5296 210.62 246.606 -69.9529 -254.528 111.904 100.871 261.986 17.7492 
61 993140938 1688055612 -341.608 -63.7893 -199.33 100.635 -319.115 -246.001 -234.524 -230.49 3.62735 -6.44803 -152.415 -448.958 
62 1573264328 1243039310 37.4568 287.133 371.624 112.98 -52.2981 158.341 2.54958 307.959 268.822 147.887 -73.1246 261.144 
63 1495571196 453649252 272.805 14.6089 -56.6971 -16.7177 161.202 -227.157 259.982 193.365 -213.081 -3.89481 -17.5541 -70.7731 
67 940115924 1420099299 316.291 167.522 41.6059 660.51 -273.186 53.234 346.489 -144.868 -175.295 630.313 39.2041 270.135 
68 855276289 1518756136 132.377 -261.583 -77.5537 155.306 153.665 396.463 425.062 -196.44 154.337 -137.379 88.5225 164.573 
68 487791332 188793896 -108.208 81.2816 350.239 -487.304 -295.424 -156.758 -58.8038 -103.571 377.019 -536.708 -110.571 -183.539 
70 945348646 1713773196 -500.638 87.628 40.2756 171.378 -92.9642 -237.261 -437.523 249.737 -144.67 108.263 -255.073 -52.3151 
71 1732685760 1659475186 12.1895 19.0311 185.995 600.691 -110.825 -196.812 95.2358 241.881 -8.67352 517.644 -333.676 -2.14397 
72 1285055217 2125560594 -135.776 16.231 172.402 73.4136 156.283 -246.192 26.2262 159.078 189.048 -88.589 13.4361 -262.839 
72 1762021462 1488876549 -142.078 -70.4026 196.4 -428.762 192.378 -70.6124 -250.09 288.378 11.1255 -320.75 -166.402 114.662 
73 835640143 1573296732 104.98 -238.081 90.6596 195.811 5.48363 29.6488 150.5 -246.663 88.9536 150.291 14.065 31.3548 
73 139566491 483477781 129.448 172.767 389.704 -111.429 -18.3805 46.8949 -72.2407 -86.2995 77.9861 90.2596 240.686 358.612 
75 1010923756 762945897 63.7762 -184.844 0.890321 254.158 -44.028 -84.8833 50.365 -103.135 -104.732 267.569 -125.736 20.7388 
76 2072185873 2117299802 241.951 492.119 -87.7813 -146.416 -280.63 -213.877 -22.3936 531.607 -82.3732 117.928 -320.118 -219.285 
77 1481682578 330217761 -39.9461 -325.851 247.481 44.9895 103.787 9.12019 232.48 -108.743 224.576 -227.436 -113.32 32.0255 
78 1661368876 1646342248 -147.522 22.8307 464.85 -216.408 -244.15 -274.112 105.147 159.647 100.172 -469.078 -380.966 90.5661 
82 1181996353 1743182935 211.304 -161.12 -310.743 -131.989 121.023 35.3803 -137.281 -12.7294 -356.663 216.597 -27.3676 81.3008 
88 1974728165 1779466211 338.988 -267.63 142.133 -106.854 -112.166 314.916 95.5537 -28.3106 420.014 136.58 -351.485 37.0353 
89 929400801 1489800742 238.203 -150.015 -310.902 132.375 -285.293 -136.164 226.295 -147.106 -314.911 144.284 -288.202 -132.156 
90 1507190779 138627377 -143.802 282.944 -367.094 207.194 -225.4 32.319 294.121 -228.89 -162.009 -230.73 286.434 -172.765 
90 1449143295 290479663 218.296 -401.124 51.5413 85.2132 -57.189 55.9051 132.166 -372.01 168.678 171.343 -86.303 -61.2311 
91 1960756336 791752876 -127.438 -534.573 18.8199 -209.474 45.6447 -193.685 -332.033 -264.92 177.065 -4.87813 -224.008 -351.93 
93 557759390 1976584791 250.627 -163.981 -134.982 -229.792 -22.8157 -53.4417 103.586 -328.347 -72.6925 -82.7515 141.551 -115.731 
93 577209530 1410554262 73.5451 -76.4123 -482.443 163.02 -302.329 -67.6544 -80.026 -320.992 -241.538 316.591 -57.7493 -308.559 
93 1976584791 348771159 -82.7515 141.551 -115.731 -370.62 127.819 390.236 -457.41 46.4831 -16.864 4.03806 222.887 291.369 
94 537626209 1452090369 -283.289 132.249 -479.51 -70.7863 -471.002 73.3431 -25.5672 -560.911 -153.721 -328.508 222.157 -252.446 
94 398309062 33219585 -603.104 373.718 452.648 304.425 36.2158 -387.557 315.213 644.135 -14.2153 -613.892 -234.202 79.3059 
94 1946239698 669251722 -217.089 -36.6357 -84.1471 286.204 111.549 -136.83 -173.017 -119.156 -154.018 242.132 194.069 -66.959 
96 1039725880 80918903 191.064 -565.258 -381.753 -7.86154 -226.483 -368.383 276.052 -380.832 -441.259 -92.8502 -410.909 -308.878 
97 1223552610 720954174 -66.4773 -344.101 -431.593 -21.9798 -96.4855 -104.977 20.1778 -415.17 -287.46 -108.635 -25.4161 -249.11 
99 1104534763 1682418113 62.4209 316.026 -113.38 -350.685 -73.4453 239.352 -52.3843 440.232 23.6166 -235.88 -197.651 102.356 
100 369859931 1647231557 -72.398 125.968 410.582 -205.564 57.5604 261.801 -93.4548 27.1797 406.144 -184.508 156.349 266.239 
101 2040960029 1777669136 -184.779 321.931 288.279 125.68 -305.098 -212.696 174.441 -136.137 387.968 -233.54 152.97 -312.385 
102 1467863585 1295574590 347.792 63.4807 -144.674 320.506 -80.5571 81.5788 463.677 -43.8463 -19.4526 204.621 26.7699 -43.6429 
103 287910804 827264405 264.284 -223.417 428.694 224.719 95.4193 249.715 159.367 98.6948 349.04 329.636 -226.692 329.369 
104 578485938 939390947 -106.894 174.355 200.818 -216.54 393.963 213.313 -275.496 242.576 227.721 -47.9377 325.742 186.409 
105 1180213467 448136129 342.305 375.917 508.019 -4.74059 -262.416 305.632 365.202 374.101 460.914 -27.6382 -260.6 352.737 
106 1212899285 833065705 118.164 8.85306 411.136 -32.8432 154.973 -289.56 320.443 35.8131 -172.651 -235.122 128.013 294.227 
108 1800134646 1707829749 -286.958 318.427 397.591 156.78 -246.772 82.9921 274.131 102.05 425.7 -404.309 -30.3946 54.8833 
109 340108304 1402870349 -23.8157 20.269 73.3111 -285.602 -140.339 136.886 -181.681 -156.936 225.41 -127.737 36.8661 -15.213 
110 436485783 2085738690 -182.818 208.927 -313.551 -16.0787 -194.38 330.999 -423.509 -87.0456 202.539 224.613 101.592 -185.09 
110 636259774 1408874870 -244.294 -257.275 119.391 64.2369 147.734 -320.459 -422.154 -49.0797 -47.3051 242.097 -60.4611 -153.763 
112 2002385450 2141661857 126.502 136.852 -243.902 -280.105 364.58 -61.9708 100.589 78.9036 -113.121 -254.191 422.529 -192.752 
115 263655060 1783489438 -114.261 -351.583 160.676 -147.689 -217.292 -157.633 -157.836 -382.268 142.325 -104.114 -186.607 -139.282 
117 1275544890 288851217 63.5329 -94.8964 -121.714 -100.749 -322.268 128.269 -158.355 -310.675 -69.8112 121.14 -106.489 76.3658 
118 1362464808 785901187 528.135 233.686 -122.897 -30.7386 -153.78 -262.581 197.48 269.904 -447.679 299.917 -189.998 62.2016 
119 1243498477 956281653 -31.3138 417.696 322.242 -80.2822 -354.416 -179.471 -0.812476 90.3459 -382.594 -110.784 -27.0661 525.366 
120 194014438 945821325 0.716489 456.701 -78.2704 471.098 -246.76 -349.195 198.633 503.479 -406.557 273.182 -293.538 -20.9088 
120 809961197 272167260 279.325 -236.697 -117.137 131.804 179.2 130.562 267.665 -187.031 194.095 143.464 129.534 -180.67 
124 612289981 1908423291 -133.056 47.1461 -268.016 -95.3607 25.2444 41.9959 39.2414 54.6198 -137.826 -267.658 17.7707 -88.1944 
125 555802934 1727699833 -121.513 274.239 -307.98 -516.984 485.409 -369.509 -303.824 600.712 -292.22 -334.673 158.936 -385.27 
126 422252998 439520414 122.352 196.47 -63.1689 -34.5725 -176.47 267.742 -37.2507 238.759 199.181 125.03 -218.759 5.39214 
130 1729715111 2053485861 -17.0626 77.7646 -50.1071 -536.498 -65.062 -464.347 -179.135 161.866 -543.116 -374.426 -149.163 28.6619 
132 1040883908 587428507 204.673 -377.298 -487.987 -88.0114 225.272 159.849 450.666 -313.968 -245.077 -334.005 161.941 -83.0613 
134 2081171140 1279734847 -146.624 166.822 -86.9597 155.066 80.5739 -40.4387 88.1385 209.277 -167.57 -79.696 38.1187 40.1713 
137 10988830 28719494 -94.8673 320.12 388.089 354.566 -313.218 33.3656 454.421 -12.2734 -66.1116 -194.723 19.1756 487.566 
138 174933266 1494369037 7.58663 172.831 234.458 187.176 200.266 122.144 62.034 130.31 94.6786 132.729 242.787 261.923 
139 1054938957 1788797328 -57.4659 207.908 214.933 220.717 -95.1363 -341.194 -138.246 177.087 175.013 301.498 -64.3147 -301.275 
140 1143283941 1021835150 -239.736 -53.9009 212.108 196.329 -287.709 -96.5388 -297.186 -176.422 153.17 253.779 -165.188 -37.6002 
142 1804489648 1352313204 -88.1553 -276.619 48.642 -167.441 646.334 -487.408 -474.418 583.898 -135.773 218.822 -214.183 -302.992 
145 1800068615 855774153 -69.7401 126.158 -102.337 -94.4755 657.928 79.3404 -13.1178 122.485 29.4661 -151.098 661.602 -52.4629 
147 853977186 636441555 -296.349 19.1893 -17.4739 31.3689 -93.5543 190.405 -18.67 -198.366 130.006 -246.31 124.001 42.9246 
148 1959653779 1716162915 -2.00744 91.9754 -247.8 -113.171 83.4462 61.5036 89.2204 73.8473 -20.4886 -204.399 101.574 -165.808 
149 1361996232 1474047925 87.4011 44.5339 -87.6745 397.446 -273.137 86.1597 234.106 86.6089 127.231 250.742 -315.212 -128.746 
150 720714622 1601552826 -139.471 -224.49 -37.3445 -428.574 -161.358 176.984 -208.44 -326.745 -28.9472 -359.604 -59.1026 168.587 
150 1769371760 1442337349 177.37 197.994 204.275 -224.63 78.7211 -588.343 346.536 76.2989 53.2082 -393.797 200.416 -437.277 
154 987949218 901852357 2.09924 -90.1571 -118.357 869.635 163.22 268.974 826.687 -49.7135 -210.23 45.0471 122.776 360.847 
156 1433780874 965887775 49.3242 26.5196 83.9965 284.756 -231.824 364.014 240.981 83.3685 123.636 93.1 -288.673 324.375 
157 1893659687 1133749583 -71.2354 485.559 -245.096 -285.494 -99.3941 -219.743 -174.883 239.192 -540.707 -181.846 146.973 75.8692 
158 2107448549 987230489 -85.7582 264.268 -301.732 -27.9021 16.1815 362.088 -256.296 433.044 59.4682 142.636 -152.595 0.887889 
158 1855805161 762062959 183.779 150.591 -42.8575 -269.728 -93.6541 -171.531 -222.013 197.189 -206.936 136.064 -140.252 -7.45164 
159 685079819 723977749 135.948 -302.63 183.385 -327.171 -47.5481 -127.021 -71.8154 -4.68667 281.897 -119.408 -345.491 -225.533 
160 1579458056 1735308376 -97.3818 -144.478 -17.3472 118.536 37.7185 -73.8449 -73.3941 -170.31 -40.2903 94.5482 63.5506 -50.9018 
160 1027684638 1321970078 212.194 158.14 575.508 257.062 50.1362 -262.816 603.498 162.315 355.51 -134.242 45.9609 -42.8182 
161 76818075 869132867 43.1568 -229.393 -10.9135 314.941 -256.218 -190.038 293.341 -359.061 -109.961 64.7571 -126.55 -90.9907 
162 1930276323 815820786 61.4716 -251.373 162.363 -58.6534 -64.7466 178.895 -83.1443 -215.133 215.088 85.9625 -100.987 126.17 
163 995341846 1625166401 -118.029 -258.862 59.6233 -269.504 19.9001 -503.36 -447.962 -7.10966 -57.0709 60.429 -231.852 -386.666 
166 252429407 1232955434 80.6796 -382.249 -508.703 -49.486 305.973 120.678 383.478 100.052 -453.329 -352.285 -176.327 65.3039 
167 22191698 93667041 518.636 -97.7262 255.66 -514.1 394.74 316.114 410.744 73.6233 680.501 -406.208 223.39 -108.728 
168 1624080968 452773654 117.331 -102.277 -303.494 -113.66 -249.049 280.322 -248.471 -38.6235 138.42 252.142 -312.703 -161.592 
170 2075860723 1387338866 -448.208 -379.818 -756.825 399.331 -43.8034 -370.968 -481.468 -309.02 -400.487 432.592 -114.602 -727.305 
172 372921176 1785437474 425.266 2.44575 101.238 308.748 290.663 -224.819 224.201 133.952 -235.535 509.813 159.156 111.954 
173 755082961 1836905982 168.571 -1.1205 74.364 -81.2849 518.433 -104.474 -198.143 410.791 82.3164 285.429 106.521 -112.427 
175 423882801 1933495165 -157.726 -209.467 -54.3822 19.0798 -152.408 -379.602 -88.1691 -220.932 -35.0134 -50.477 -140.943 -398.971 
177 2103748909 1992109685 -295.815 -278.51 -595.499 -125.286 269.573 294.223 -663.387 -277.184 -179.551 242.286 268.246 -121.724 
178 24739355 367527841 -17.6994 214.778 15.5557 261.101 -90.6612 -124.3 159.807 256.048 38.158 83.595 -131.931 -146.903 
178 1453697797 1861431691 -26.9664 -121.738 132.851 251.278 -171.382 -25.0895 74.7507 -163.259 210.5 149.561 -129.861 -102.738 
179 949061635 2003560459 55.1192 616.907 109.33 -136.594 121.016 -9.16198 -210.393 213.32 195.576 128.918 524.603 -95.4085 
181 1306318359 1304575134 -142.123 336.546 189.453 235.887 152.895 -41.1551 -123.049 139.26 206.253 216.813 350.182 -57.9545 
183 1405330433 464430011 -151.34 -255.453 87.6153 241 467.686 -160.238 222.134 319.092 -364.607 -132.473 -106.859 291.984 
184 1676897766 1943653911 -144.154 -25.5879 85.8927 268.095 -520.473 115.538 -28.1203 -242.69 408.771 152.061 -303.371 -207.34 
185 1197529577 1438035851 -89.3564 -515.162 416.561 -38.3015 -51.0889 244.745 -278.707 -175.889 395.464 151.049 -390.362 265.841 
186 1107557015 761880700 -205.209 -43.4239 -421.606 40.8808 -101.709 350.362 154.574 -389.953 -126.14 -318.903 244.82 54.896 
187 173633102 1474661481 -39.7134 3.21409 -34.9554 -222.444 -244.481 -65.7458 -95.1474 -7.06096 -149.007 -167.01 -234.206 48.3056 
189 766559766 2110312551 -122.506 17.2782 -391.082 -315.641 -217.469 -44.6282 -357.152 -235.669 -343.01 -80.9955 35.4779 -92.7 
190 285129158 991471609 399.361 240.948 -441.331 396.869 -225.454 -77.0977 674.345 -48.9987 -348.811 121.885 64.4932 -169.617 
191 309100504 2026800247 -38.6511 247.756 494.514 129.324 -163.403 108.004 101.67 331.117 303.324 -10.997 -246.764 299.194 
191 534515517 922193073 208.359 -184.837 -135.089 -302.021 -72.8489 335.052 117.705 146.168 -44.2831 -211.366 -403.854 244.246 
192 1865380166 1887474433 77.839 -109.276 97.7771 477.988 183.663 -46.9121 160.782 -160.158 -93.0986 395.045 234.544 143.964 
193 1110456844 1085189195 36.2263 -197.81 77.6196 -283.464 -97.4543 137.494 7.30584 -101.688 206.108 -254.544 -193.577 9.00555 
197 1127626371 741189268 357.565 -296.135 -42.5787 391.149 149.667 -230.882 278.534 -146.715 73.6257 470.181 0.246671 -347.087 
198 1283870527 1489221985 75.2547 54.2633 148.434 -193.114 -422.206 -77.3125 155.263 -243.179 -159.676 -273.122 -124.764 230.798 
199 368685275 851893068 -23.2456 144.728 -500.234 -382.711 140.176 204.154 176.245 86.3596 -244.957 -582.202 198.544 -51.1229 
199 348405945 1710257464 -161.781 107.214 -61.4455 -102.652 -12.8494 510.681 -289.578 292.791 259.601 25.1451 -198.426 189.634 
199 348405945 1397193143 -289.578 292.791 259.601 -329.915 98.6007 -49.0115 -328.372 105.932 264.167 -291.12 285.459 -53.577 
201 1129506927 1856855407 295.561 -74.3794 -157.624 -160.294 148.775 -153.059 296.855 3.83377 -51.6605 -161.589 70.5616 -259.022 
201 1129506927 2005330610 296.855 3.83377 -51.6605 69.3722 181.241 -16.0714 193.677 166.95 90.5259 172.551 18.1251 -158.258 
203 1007888045 351406435 70.035 -353.966 143.612 113.122 423.58 -153.427 -108.304 78.9555 -367.901 291.461 -9.34187 358.086 
209 257007224 1162273915 -100.137 184.667 -5.22336 -226.759 -62.6779 -350.338 -369.685 -6.89 -221.796 42.7886 128.879 -133.765 
211 664271936 494813428 -563.083 45.7504 -246.888 160.625 121.298 -106.627 -495.079 -93.5113 -316.737 92.6213 260.56 -36.7779 
212 1381730432 1426750738 -110.132 408.574 -7.34862 -104.367 -361.588 98.9656 59.3802 360.761 -52.2023 -273.88 -313.775 143.819 
213 969464355 94599585 179.853 -260.583 527.865 223.197 -476.987 263.354 290.284 -249.27 482.252 112.766 -488.3 308.967 
213 648207536 1537049282 -229.036 -305.582 -98.8592 4.16094 478.069 322.695 -342.624 473.66 19.8784 117.749 -301.173 203.957 
215 1955859040 2027064491 -43.1021 11.9583 -377.834 -735.791 -102.161 -467.1 -323.572 -306.447 -651.73 -455.321 216.244 -193.204 
217 497897369 99430490 -108.732 321.813 -340.117 -110.24 11.4453 -263.795 -186.62 306.467 -296.062 -32.3519 26.7917 -307.85 
219 1878835547 440557571 57.1356 80.5964 -278.71 168.814 198.351 299.809 -121.759 110.592 195.81 347.709 168.355 -174.712 
219 1098279388 1345844169 -3.88415 -419.253 -3.14259 -156.575 -123.843 58.8061 -33.2915 -174.425 -102.433 -127.167 -368.671 158.096 
222 1479827083 1197763870 184.817 -26.9777 387.971 40.8444 -50.8105 162.611 89.7125 -129.836 179.292 135.949 52.0483 371.29 
223 820721917 1848027244 161.997 231.865 247.415 176.556 -432.788 -26.7304 -179.086 -98.284 21.3387 517.639 -102.639 199.346 
225 556736806 1174670206 -12.8317 -114.774 253.219 504.151 20.8552 147.177 135.666 122.897 382.621 355.653 -216.816 17.7748 
227 106575840 1020105760 483.586 76.1861 -76.2298 -226.113 215.351 288.656 530.904 190.447 88.6011 -273.432 101.09 123.826 
228 119793788 1575977390 221.224 165.283 8.47168 -119.085 -23.855 -67.798 99.8399 39.8816 -219.455 2.29976 101.547 160.129 
229 2110297910 602849625 -422.934 -422.333 -339.214 236.294 62.9948 54.313 -517.666 -205.852 17.2108 331.027 -153.487 -302.112 
230 580139148 235019031 -159.435 117.439 10.7479 139.915 -97.8261 80.5064 -82.6439 21.1405 218.148 63.1239 -1.52772 -126.893 
231 1145581456 429955741 394.306 -185.058 -202.283 39.663 277.247 135.623 489.86 -87.9419 -178.219 -55.8907 180.131 111.559 
232 38553962 1833671247 165.836 100.488 -169.603 112.639 457.788 -98.473 298.098 272.268 -41.2788 -19.6227 286.008 -226.797 
233 2035637941 856531527 402.17 2.80443 317.46 -286.677 237.138 664.47 -152.112 305.596 780.727 267.605 -65.654 201.203 
235 1307870639 715614398 29.3091 281.481 -333.295 -225.523 20.0441 -191.34 -115.054 324.227 -172.971 -81.16 -22.702 -351.664 
236 604992754 1819692133 -81.413 529.421 261.9 -42.8199 -185.803 -41.6567 151.393 474.149 229.703 -275.625 -130.532 -9.45906 
237 1593977266 859217166 -265.006 -404.937 -60.51 -148.123 241.863 266.307 27.1507 -309.652 270.367 -440.28 146.578 -64.5707 
238 1723054150 992444831 47.8901 -389.939 -356.637 -248.263 -314.086 -178.098 -141.676 -271.484 -419.446 -58.6967 -432.541 -115.289 
239 509184914 1695651421 342.171 217.312 71.8893 113.508 529.554 -120.156 11.9454 372.451 -31.5229 443.733 374.416 -16.7438 
240 1793862759 715851183 -213.733 -189.502 238.131 -36.4967 -90.0864 396.013 -151.176 -31.5425 381.555 -99.0532 -248.046 252.59 
241 1919950792 355316940 -11.988 -331.147 -213.103 91.3635 -136.005 107.468 -24.7924 -416.122 -72.8462 104.168 -51.0296 -32.789 
243 1358247034 481565309 -145.456 -483.526 -111.202 -173.556 187.81 -220.349 -192.131 -202.503 168.587 -126.881 -93.2129 -500.138 
244 445008512 1901814348 46.6844 -73.1735 50.5505 86.7961 127.726 -19.8013 160.764 -0.770729 61.2286 -27.2838 55.3235 -30.4794 
244 1145613872 445008512 275.279 344.514 -144.408 160.764 -0.770729 61.2286 105.683 300.556 -161.904 330.36 43.1867 78.7246 
246 517061485 349779707 -162.517 47.9721 227.785 48.8877 -188.501 -285.359 133.316 161.13 7.11806 -246.945 -301.659 -64.6919 
248 1630872278 193075375 100.37 -159.962 -216.334 -55.0778 88.6251 58.3786 122.208 123.717 -149.971 -76.9164 -195.054 -7.9838 
249 2027693274 1333630189 -11.5322 276.247 313.309 784.811 236.494 70.9387 289.546 651.509 102.347 483.733 -138.768 281.901 
250 1182346975 650429615 -487.38 -22.1239 -331.509 -331.74 -193.331 368.726 -313.506 -226.938 -316.845 -505.615 11.4828 354.061 
251 1818315633 1928191312 507.217 -51.4776 -14.8606 205.176 387.524 60.4009 585.762 85.4226 136.263 126.63 250.624 -90.7225 
253 1620712967 1701989878 432.842 494.053 -94.5823 26.5947 150.646 -146.089 257.174 227.35 127.91 202.262 417.349 -368.581 
256 246406287 904100107 67.4855 -130.27 -236.243 -273.282 227.413 -529.502 -129.565 327.693 -320.46 -76.2317 -230.549 -445.286 
258 1211301452 1548968003 379.791 205.401 405.282 138.417 -26.7281 477.942 146.999 218.819 436.823 371.21 -40.1458 446.401 
259 974638882 1084380719 -417.878 328.811 -64.0444 15.336 524.892 -440.744 29.8366 323.905 -85.0701 -432.379 529.799 -419.719 
261 876401017 1058679701 -461.078 -93.6456 -18.386 194.754 -301.724 85.8942 -121.402 3.43508 317.451 -144.922 -398.804 -249.943 
262 32354156 1271174387 -40.5351 -278.726 57.7196 -234.53 164.619 -153.255 -180.645 -317.461 -45.7574 -94.4208 203.354 -49.778 
264 485645869 1078059947 131.248 72.8973 -82.3804 181.942 11.0933 -184.179 165.574 96.4039 -167.15 147.615 -12.4133 -99.4093 
266 1169728217 819815082 -219.953 139.803 99.8563 -10.006 -3.74937 54.9916 -232.495 90.2422 28.732 2.53655 45.8112 126.116 
269 1240640507 1857607961 -156.5 283.731 162.65 -340.898 -13.3255 305.476 -301.66 183.782 408.695 -195.737 86.6234 59.4315 
271 348422107 1479288612 644.852 7.60124 -54.7017 -97.0117 6.62392 -343.442 398.871 90.4599 -567.683 148.97 -76.2348 169.539 
273 1121307010 1985513983 -54.6544 -184.925 -135.961 190.324 -158.688 212.335 -74.5143 -246.302 -102.136 210.184 -97.3109 178.509 
274 8964840 1127005639 136.391 45.5922 -41.3149 -447.51 -256.753 79.3984 130.531 -90.2566 191.23 -441.65 -120.905 -153.147 
274 1707598568 1489765072 19.0991 -145.625 206.451 -181.424 -75.6735 444.912 -65.1803 -3.2496 208.628 -97.1451 -218.049 442.735 
275 615450344 1722701050 388.178 -197.162 134.734 -125.771 171.192 83.3558 207.757 187.156 342.925 54.65 -213.126 -124.835 
277 1419691607 904576913 367.742 82.1879 241.125 366.012 282.531 145.064 346.009 73.2952 196.49 387.745 291.424 189.7 
279 732396654 450588250 602.829 -297.749 248.658 16.4516 -372.158 -272.185 269.203 -651.528 219.123 350.077 -18.3789 -242.649 
280 475421195 390134936 -305.741 -140.702 -244.816 -261.57 238.674 -413.32 -413.114 -90.9961 -414.001 -154.198 188.968 -244.136 
283 1915053546 1781188746 183.212 397.833 10.3355 -250.247 198.146 108.019 115.593 489.06 83.3494 -182.628 106.92 35.0056 
284 560276353 925847266 -116.821 -68.6593 -194.752 -302.959 81.5947 -121.816 -182.747 -113.442 -135.464 -237.034 126.377 -181.103 
287 1957828804 408642363 -164.266 -163.808 -176.986 -56.2863 9.28279 417.838 -418.355 -16.0663 134.605 197.804 -138.459 106.247 
289 1456611069 1039723678 114.691 267.816 269.859 -80.1423 117.435 -105.86 -143.325 318.624 175.631 177.874 66.6262 -11.6315 
290 1258414707 759306374 -193.411 -145.409 44.5565 -24.0975 582.746 -11.1793 83.7074 -62.3753 -139.736 -301.216 499.713 173.113 
291 2106767071 1122098106 -106.458 -17.905 201.45 65.0671 561.068 -498.819 191.695 321.353 -556.318 -233.086 221.81 258.948 
295 234855277 1340565517 67.1889 63.0887 252.331 210.354 258.63 -57.3816 293.88 202.717 210.845 -16.3373 119.001 -15.8955 
296 345715369 1590892788 -368.497 701.493 -10.064 -6.94055 100.266 -66.4988 162.439 435.92 -35.6908 -537.877 365.838 -40.872 
297 1196910849 375747444 140.078 -106.969 89.5929 184.928 -16.2144 442.474 157.614 46.9669 118.1 167.392 -170.15 413.967 
298 1330573126 1354457391 -462.735 78.6794 -10.9976 -138.206 -7.7035 -19.5084 -392.845 0.975323 120.722 -208.096 70.0005 -151.228 
299 1249748219 1461558605 -145.033 -138.292 297.709 -224.911 -5.04079 192.011 -274.001 -42.936 236.172 -95.9429 -100.396 253.549 
302 476402838 160875728 483.098 -17.4215 -125.345 -308.28 152.683 125.601 125.476 -264.251 260.805 49.3418 399.512 -260.549 
304 21839069 1360439714 94.7571 -122.519 -134.016 79.3997 78.9858 -6.54499 181.737 -83.6343 -108.807 -7.58067 40.1011 -31.7542 
304 1515336395 1780137821 669.031 -79.8044 -233.646 104.622 214.176 -350.374 290.917 141.766 7.80833 482.736 -7.39478 -591.828 
306 1260650126 1128128717 -242.385 92.503 -90.2613 -253.685 -266.534 -79.9055 -329.72 -90.6377 -245.084 -166.35 -83.3937 74.917 
308 279261672 626445048 -203.27 -94.1756 340.537 76.2989 -15.2847 -122.789 -274.187 -228.023 90.4976 147.216 118.563 127.251 
309 1736278813 1897181332 -142.52 -40.034 -70.583 -323.593 -155.571 -13.8989 -157.082 -21.2079 -68.6694 -309.031 -174.397 -15.8126 
311 921488516 515680434 -431.135 -176.12 94.2437 37.6707 -302.65 -248.468 -307.316 -409.76 -294.03 -86.1488 -69.0101 139.807 
311 1833543811 1838774961 -132.36 -88.8306 158.898 -244.498 128.582 115.906 -161.334 139.829 154.724 -215.524 -100.077 120.081 
312 1812690038 73932025 338.567 11.9332 47.3292 -413.087 72.8902 -108.909 -128.891 -97.5585 316.038 54.3715 182.382 -377.618 
313 1068321589 522427381 470.802 264.443 171.57 179.686 -191.887 -453.363 392.621 444.12 -143.545 257.867 -371.564 -138.249 
316 386376385 30302566 -270.249 52.5852 173.728 -60.0715 -256.512 155.224 -140.297 56.0614 67.396 -190.023 -259.988 261.556 
316 653292326 1748206932 147.561 -676.651 112.712 26.5476 -81.7274 -79.4411 16.0297 -363.887 326.63 158.079 -394.491 -293.359 
317 1391230425 1258612160 -226.049 202.025 196.204 -125.214 138.904 -150.665 -326.952 246.044 93.5327 -24.3116 94.884 -47.9933 
317 200511220 1481404229 -300.57 -453.843 152.652 -229.756 -171.189 156.79 -253.515 -457.75 153.053 -276.811 -167.283 156.389 
318 1558805038 1619792345 -108.235 -46.4882 194.067 -122.163 -249.896 59.9115 -159.598 -195.324 230.425 -70.8004 -101.061 23.5535 
320 576274131 1783157050 331.168 219.235 -39.972 -465.744 -337.555 -62.5356 129.246 195.897 313.052 -263.821 -314.217 -415.56 
321 1466305789 1223609918 -271.517 -402.138 172.327 472.533 157.147 265.652 530.83 -305.241 204.623 -329.815 60.2492 233.357 
322 1272162367 966906361 -94.9542 279.809 -28.1487 -343.311 71.2165 63.9337 -187.681 309.487 115.255 -250.584 41.5388 -79.4702 
324 107680205 1785242738 304.591 226.875 1.83244 215.27 -201.891 40.6482 60.1865 98.6244 53.0946 459.675 -73.6405 -10.614 
325 369367584 113160342 259.223 -811.639 -42.5658 -111.302 -277.011 6.1463 354.89 -616.521 130.916 -206.969 -472.129 -167.336 
326 1288300178 1176701185 -24.1536 206.285 -485.839 -176.466 56.2466 70.0471 -338.083 129.303 -387.173 137.463 133.229 -28.6192 
328 1990420229 1433837454 -210.464 -172.961 -664.945 525.201 230.847 -20.8997 -226.117 392.965 -329.097 540.854 -335.079 -356.748 
329 101836386 865496037 310.467 317.147 452.445 -12.7384 -247.63 -319.648 -95.5226 385.808 -201.799 393.252 -316.29 334.596 
330 1432009017 208696339 256.114 309.171 191.284 -110.291 374.986 -472.474 -37.2204 114.811 144.027 183.044 569.347 -425.217 
331 1124609831 448019269 353.377 62.2801 337.003 -189.331 -62.4669 415.219 24.4469 40.7818 103.958 139.6 -40.9686 648.264 
332 1522088917 1179893535 7.05212 -37.334 333.252 -5.86727 -129.36 -327.337 77.7258 147.834 230.683 -76.5409 -314.528 -224.768 