ITEM: TIMESTEP
0
ITEM: NUMBER OF TALLIES
0
ITEM: BOX BOUNDS rr rr rr
0 0.0001
0 0.0001
0 0.0001
ITEM: TALLIES c_1[1] c_1[2] c_1[3] c_1[4] c_1[5] c_1[6] c_1[7] c_1[8] c_1[9] c_1[10] c_1[11] c_1[12] c_1[13] c_1[14] c_1[15] 
ITEM: TIMESTEP
500
ITEM: NUMBER OF TALLIES
732
ITEM: BOX BOUNDS rr rr rr
0 0.0001
0 0.0001
0 0.0001
ITEM: TALLIES c_1[1] c_1[2] c_1[3] c_1[4] c_1[5] c_1[6] c_1[7] c_1[8] c_1[9] c_1[10] c_1[11] c_1[12] c_1[13] c_1[14] c_1[15] 
2 312655449 44122933 -69.4996 224.299 -34.5677 -189.276 -77.7127 -227.752 -303.05 145.674 -113.211 44.2737 0.912782 -149.109 
3 178923267 33763736 -211.432 -337.196 387.992 -36.5633 -100.68 -126.901 -179.481 68.6209 176.806 -68.5138 -506.497 84.2851 
5 68771505 894422272 -24.0468 -211.073 -121.897 -522.937 -149.178 -208.339 -299.844 -61.1669 58.9429 -247.14 -299.084 -389.178 
5 1587448340 453649252 9.54351 272.614 -66.5958 -275.032 8.542 -99.7161 -157.183 272.332 58.2561 -108.305 8.82467 -224.568 
5 2112923056 111333435 123.877 38.9321 349.858 325.646 173.553 -40.0678 86.237 27.3081 320.12 363.286 185.177 -10.3297 
8 604768999 147963324 -217.357 410.727 -59.322 -241.406 -214.956 -109.265 -522.836 23.8216 -0.405378 64.0729 171.949 -168.182 
8 1913525422 144244477 116.021 241.075 -465.473 60.7599 -492.871 -628.234 297.806 -381.164 -728.622 -121.025 129.368 -365.085 
9 1586522371 2015802659 -188.166 179.884 -61.8852 -176.394 -83.9079 -252.546 -344.853 39.4077 -161.155 -19.707 56.5686 -153.276 
10 935303828 1387171779 128.613 -201.338 518.664 253.279 -348.743 117.148 142.927 -64.7081 373.367 238.965 -485.373 262.445 
12 675284792 1734084951 -106.888 -311.053 -78.9236 201.686 102.059 -139.653 73.4132 -292.79 67.5193 21.3844 83.7957 -286.096 
13 2119483509 1080119497 -390.317 160.066 282.228 255.689 -25.5347 275.044 -272.515 322.533 354.047 137.888 -188.002 203.226 
16 34421321 803039486 74.8328 -97.375 -287.3 454.204 -177.463 -66.321 426.353 -58.9565 -308.891 102.683 -215.882 -44.7304 
16 1949747596 83640227 -340.858 101.277 -376.506 -306.006 -136.248 -170.055 -439.888 -61.0482 -371.281 -206.977 26.0778 -175.28 
17 990872102 102039392 398.061 -19.3333 -372.49 -70.5257 -156.664 -327.746 165.821 73.109 -165.323 161.714 -249.106 -534.912 
18 750100361 2087177431 -149.702 270.61 453.815 -23.6682 189.603 -442.686 -227.851 -74.1186 312.256 54.4814 534.332 -301.126 
19 587090873 823189672 491.647 -214.286 -449.737 7.40519 -54.5794 53.9394 359.02 -42.9807 130.84 140.032 -225.885 -526.637 
20 598871412 637678829 297.608 64.2233 -191.504 159.952 614.377 -320.228 194.109 137.446 -462.264 263.452 541.154 -49.469 
21 2142188789 634676383 316.688 131.582 455.201 -39.4787 15.1493 -80.2697 -93.2467 63.3201 417.529 370.456 83.4115 -42.5975 
23 1316064485 1668315504 174.526 304.044 -86.7793 -483.773 -4.83428 229.24 189.072 -26.5821 -18.1557 -498.318 325.791 160.616 
23 272694624 1316064485 -57.954 481.106 399.161 189.072 -26.5821 -18.1557 -280.758 266.237 148.36 411.876 188.286 232.645 
24 1570172141 1474843555 504.691 44.6811 229.687 -40.5617 26.0673 416.968 429.136 -167.104 381.171 34.9938 237.853 265.484 
25 451892114 927219428 -321.013 -422.543 -325.358 282.981 72.2157 267.012 -172.845 -635.694 -95.2916 134.814 285.367 36.9464 
25 696042519 614821849 106.951 22.5214 -13.5456 -104.161 16.2901 -10.6419 75.633 -40.1268 -57.9023 -72.8428 78.9383 33.7148 
26 201744150 901849095 134.706 364.863 447.152 195.199 20.007 -137.2 -60.9956 394.759 -0.0254311 390.901 -9.88885 309.977 
29 139566491 1666938186 -221.891 -171.345 54.2686 9.3967 132.572 412.108 87.9706 -194.624 240.165 -300.465 155.85 226.211 
31 247025018 1309305321 -17.6467 28.5501 -25.7797 94.9964 -75.0628 161.038 97.8663 -123.625 99.3106 -20.5166 77.1126 35.948 
32 1037482592 608882203 -398.382 -502.703 -308.912 199.709 -461.225 133.047 -395.584 -578.078 -292.113 196.912 -385.85 116.248 
34 825939257 561061030 -135.756 226.709 286.703 441.795 44.9481 -2.67416 -84.5022 337.336 266.767 390.542 -65.679 17.2613 
35 167561953 276923477 155.752 -188.591 -593.293 -195.512 83.8421 -410.015 -195.611 -194.247 -419.253 155.851 89.4984 -584.056 
35 947865257 1081842954 20.8206 261.962 170.557 69.1592 -374.569 -264.555 384.966 116.603 14.0555 -294.986 -229.21 -108.053 
35 428977253 1402312860 0.203945 -63.519 358.15 235.528 499.782 -203.112 -224.161 -13.1343 115.717 459.892 449.398 39.3212 
35 2072247238 276923477 25.1366 440.643 -255.086 155.851 89.4984 -584.056 199.07 410.686 -590.334 -18.082 119.456 -248.807 
36 1141618095 1579373275 325.985 9.96497 247.434 -316.293 -174.057 -5.4333 177.723 -394.577 125.408 -168.032 230.485 116.592 
37 918270134 1573264328 201.321 -74.8216 319.222 -180.365 -119.458 169.587 -80.2811 12.8384 393.349 101.237 -207.118 95.4602 
38 402438746 1560464845 -125.304 -59.383 -1.17914 -288.217 -460.383 143.814 -54.7353 -206.342 -90.2778 -358.786 -313.424 232.912 
41 572781367 1027431639 272.974 266.991 70.9397 322.509 -76.9606 -230.96 244.488 176.361 128.609 350.995 13.6701 -288.629 
41 477893498 1027431639 289.21 110.246 164.094 350.995 13.6701 -288.629 353.582 273.093 31.6835 286.623 -149.177 -156.219 
43 1600988239 1091073723 -77.6644 -20.8753 325.929 249.305 -105.868 -164.66 4.86135 7.98081 358.226 166.78 -134.724 -196.957 
46 1000018712 1749302460 -174.847 519.593 -261.177 371.872 32.3354 -50.3307 -155.609 155.146 101.189 352.635 396.783 -412.696 
47 2011973666 924761043 813.583 -70.1408 196.53 -220.124 -58.5462 94.7816 55.7795 219.216 -216.693 537.68 -347.903 508.004 
50 2129177562 1162771629 -454.128 -118.877 -181.995 -366.569 248.37 136.305 -427.847 -169.86 52.0976 -392.85 299.353 -97.7884 
51 1663491275 1928588205 -193.635 -40.8543 -96.5612 44.0086 -70.0207 -165.881 -171.439 0.919335 -186.177 21.8119 -111.794 -76.2657 
53 936403853 1646610275 626.511 256.74 391.736 158.279 -32.0999 -201.541 407.52 513.575 144.37 377.27 -288.935 45.8258 
54 999074147 652778311 -462.922 -176.004 453.598 -201.163 -76.575 -182.969 -417.577 -463.314 133.461 -246.509 210.736 137.168 
55 223382118 691878433 237.699 417.508 -25.7494 -90.7865 8.71196 235.705 -184.585 319.286 15.6183 331.498 106.934 194.338 
55 1370631646 691878433 449.209 -192.821 -184.48 331.498 106.934 194.338 412.041 -237.622 -148.149 368.665 151.734 158.007 
56 1893659687 518952935 12.2487 -268.079 -171.108 -312.388 -74.4333 212.044 -245.979 -268.616 -211.363 -54.1599 -73.8963 252.299 
60 173264742 826865602 -234.692 513.375 -154.165 -136.372 -446.075 -446.182 121.567 -27.7251 94.5347 -492.631 95.0244 -694.882 
62 1046518001 1125336735 156.767 245.679 144.113 430.417 -192.248 -346.466 380.568 -313.435 -160.893 206.616 366.865 -41.4599 
63 154065220 628999441 -226.364 104.99 -75.7474 181.578 214.413 30.2302 39.9281 -23.7957 76.4894 -84.7136 343.199 -122.007 
66 3601828 208696339 -405.865 39.6467 -465.433 58.1727 14.5293 73.9234 -111.352 108.334 -536.651 -236.34 -54.1576 145.142 
67 1456834192 1954017296 42.0309 -266.211 -1.40345 -106.454 -370.728 130.569 19.4168 -288.794 159.719 -83.84 -348.145 -30.5538 
71 696874459 560276353 247.439 -6.03556 -324.278 176.452 -178.481 575.377 372.401 -0.856227 -295.091 51.4894 -183.66 546.19 
72 889830166 473665273 -139.156 -160.006 -339.016 25.5596 247.047 127.481 -332.984 193.829 -44.6166 219.388 -106.789 -166.918 
73 1438035851 1137322380 440.523 -356.876 -438.783 283.047 299.279 135.275 737.191 -244.042 -57.0928 -13.6204 186.446 -246.416 
75 315829245 1937840673 -199.26 176.637 -93.7252 4.43104 -1.40284 -61.1746 -184.131 186.789 -42.7049 -10.6985 -11.5549 -112.195 
76 1770371422 2126207974 -262.26 -484.622 42.9849 129.542 -272.953 -142.023 -127.985 -548.596 -209.213 -4.73258 -208.979 110.176 
77 956140877 1089810930 -285.583 136.055 157.172 -149.195 229.329 191.05 -202.812 114.3 221.253 -231.966 251.084 126.969 
77 425364799 652723164 -40.1666 -444.768 -145.049 53.0435 211.845 -266.692 -77.7588 -295.308 -478.966 90.6357 62.3845 67.2247 
78 225765877 86117686 545.139 185.756 -426.486 -8.47911 242.541 327.623 552.266 -158.286 -65.9156 -15.6065 586.584 -32.9471 
82 508501422 649126380 111.749 255.993 155.583 -117.794 -198.671 -306.871 -73.528 365.328 -77.2239 67.4825 -308.007 -74.064 
82 649126380 318006368 67.4825 -308.007 -74.064 49.9943 400.538 30.6384 30.6392 351.574 -206.979 86.8376 -259.042 163.553 
86 1253005868 928304509 -174.819 -65.3297 495.557 59.9963 66.9055 -59.6542 30.1408 116.382 490.337 -144.964 -114.806 -54.4338 
87 133834853 1906804846 306.217 89.9413 202.526 467.161 -180.277 -95.1408 416.522 -39.2764 268.068 356.856 -51.0594 -160.683 
91 570913494 847525625 44.4098 -265.471 154.325 139.55 -209.035 -39.143 188.826 -183.914 71.4601 -4.8661 -290.593 43.7218 
94 137877585 1979948339 153.636 -240.26 -36.5904 -44.9683 -127.848 421.187 80.4279 -436.883 163.899 28.2397 68.7755 220.697 
96 1285637090 1276451888 145.16 214.274 240.654 4.82645 87.0769 -393.888 194.014 135.176 231.965 -44.0274 166.174 -385.199 
97 1081345506 402437209 -347.658 -143.799 -383.652 -102.916 -43.4943 -133.838 -246.709 86.2788 -274.859 -203.865 -273.572 -242.632 
100 891926806 1291217060 88.9031 3.7094 -406.494 -292.868 -217.353 -197.383 -8.21086 -76.8752 -78.5634 -195.754 -136.769 -525.313 
101 1059908090 2006934664 -28.6069 274.103 -71.3656 114.054 29.4847 -150.538 -76.8089 234.26 -88.0183 162.256 69.3276 -133.886 
101 1471730430 243371214 30.9193 -366.426 261.755 -42.9941 -343.163 121.101 -67.321 -339.753 141.779 55.2462 -369.835 241.078 
102 1996394123 1466812106 182.178 -57.9532 -241.113 -212.972 -306.837 71.5127 -193.09 -153.208 -300.505 162.296 -211.582 130.905 
106 999956525 457403811 256.4 -389.705 -235.471 122.563 99.1753 -164.8 137.074 -364.688 -320.902 241.889 74.1584 -79.369 
106 2075129180 405070013 -6.46127 69.5125 -94.2088 200.036 -213.932 -22.6361 44.4122 -197.369 58.2741 149.162 52.9497 -175.119 
106 1678274636 1887860242 -11.347 221.245 254.143 39.494 -81.6963 -228.382 -204.163 196.4 147.551 232.31 -56.8512 -121.791 
110 1955457561 717616707 44.3274 -544.991 -195.956 -122.929 445.9 -80.3241 -355.763 177.945 184.199 277.162 -277.035 -460.479 
110 1603200113 2108269528 88.2914 31.273 -304.855 -12.4925 -68.7143 252.963 -242.801 33.8348 -61.6384 318.6 -71.2761 9.74701 
112 1948781252 1260122111 150.126 126.942 119.15 -432.815 35.076 84.0092 -351.899 217.04 -55.0611 69.2094 -55.0218 258.22 
115 1781154803 1969368675 -165.853 -378.345 -250.982 204.74 155.005 345.47 -350.319 57.0123 218.157 389.206 -280.352 -123.668 
117 661518385 947436408 -10.2021 173.341 177.053 242.497 63.2006 -451.452 174.111 -111.664 -385.235 58.1835 348.205 110.836 
119 329550325 1426494687 -240.497 110.242 -117.971 5.78567 238.749 -210.623 -263.073 167.642 -176.861 28.3618 181.349 -151.733 
121 448136129 889691164 182.56 -8.6387 -311.284 -511.731 -132.009 115.265 -75.1799 -445.651 -242.707 -253.991 305.003 46.6882 
122 1843851108 1082651129 624.787 -23.8874 -183.719 -201.846 -597.946 2.84104 326.458 170.38 -221.01 96.4827 -792.214 40.1323 
123 1925664649 1790487531 -555.871 1.22008 -440.397 -467.252 -269.818 170.748 -367.159 -399.865 -284.242 -655.965 131.268 14.5926 
124 571904 313819559 -8.85776 189.846 -294.054 -458.005 448.039 -511.927 -60.085 488.18 -260.597 -406.778 149.705 -545.384 
125 883135673 357560927 -296.075 -14.4007 11.7346 -151.418 207.284 197.975 -85.861 123.039 24.4246 -361.631 69.8441 185.285 
125 357560927 2008335126 -361.631 69.8441 185.285 214.526 235.957 -353.496 -66.3774 201.365 315.968 -80.728 104.437 -484.179 
126 2126777412 338964294 455.481 95.0224 -37.6281 19.144 -119.369 -321.623 434.179 44.4043 13.4912 40.4455 -68.751 -372.742 
127 637543486 969464355 -181.965 -124.01 52.2748 51.2531 -270.631 421.123 -95.0531 -179.982 464.299 -35.6591 -214.659 9.09865 
130 2092309041 121916153 -21.1972 -186.386 338.436 35.4697 -65.4451 166.318 47.1946 -163.956 346.259 -32.9221 -87.8753 158.495 
131 1816170885 2018013629 -411.142 7.25558 564.354 -98.6984 242.584 286.918 -301.113 136.752 660.623 -208.727 113.088 190.649 
132 1360148363 496017912 -187.738 -162.093 347.812 193.221 207.749 75.5448 -130.025 1.4201 477.996 135.509 44.2361 -54.6393 
133 808492984 832484695 282.237 -165.536 -316.807 -81.3518 99.9249 -94.9246 160.396 117.525 -397.649 40.4896 -183.136 -14.082 
134 1798430723 881734863 205.98 -143.667 -99.3243 -311.429 -121.192 101.155 -261.757 -56.8974 -165.525 156.308 -207.962 167.356 
134 1726387465 969658865 50.872 -249.602 177.027 110.936 10.3704 -335.74 -98.0155 -250.684 105.954 259.823 11.4527 -264.667 
135 1726510602 698963316 89.2012 116.904 93.2527 -147.083 -117.613 11.0063 -14.9472 135.839 -51.0871 -42.9345 -136.548 155.346 
137 358654881 1685180679 146.317 -228.08 -276.544 194.581 10.3025 165.892 59.7019 -310.119 49.4011 281.196 92.3413 -160.053 
137 684448167 358654881 28.9832 -261.941 202.416 59.7019 -310.119 49.4011 32.9584 -299.009 205.73 55.7267 -273.051 46.0867 
139 1041499510 1909037634 -132.627 40.414 -109.011 100.535 216.811 494.795 45.8694 -149.807 16.3576 -77.9616 407.032 369.426 
140 158114378 1606209521 8.76871 -197.507 240.607 -77.4072 55.4587 -27.3569 117.407 38.8989 80.1365 -186.046 -180.947 133.113 
143 227525815 884883259 -213.324 -69.5684 266.752 226.384 -194.513 5.50592 -95.3318 -97.2105 376.362 108.392 -166.871 -104.104 
144 1653799490 1681867013 214.28 -22.2492 -146.012 -485.777 167.914 134.876 -157.95 334.239 281.588 -113.547 -188.575 -292.724 
145 1612899423 1840188475 -142.819 21.0472 14.3674 -186.221 -280.492 42.9828 -172.268 -41.2541 153.256 -156.772 -218.191 -95.906 
145 1196654351 1323890446 -46.9211 -142.638 -22.7015 -7.77274 60.6506 -332.7 -84.4784 -101.62 -344.434 29.7845 19.6322 -10.9675 
147 1763295878 906171743 -230.323 -76.4399 -56.0745 -83.9885 -126.893 236.267 2.17001 -108.876 133.903 -316.481 -94.4561 46.2895 
147 1900223116 1905901935 160.737 162.389 60.623 159.073 -590.609 227.534 -207.46 -212.038 261.364 527.269 -216.183 26.7933 
148 1432117532 1321275842 159.907 443.233 274.978 -295.597 -461.717 68.0121 -354.811 419.729 202.266 219.122 -438.214 140.724 
149 1952754620 648293775 -117.155 -64.6794 145.444 111.897 153.882 231.901 -77.7607 173.431 257.122 72.5027 -84.2286 120.224 
150 439019745 1843222962 296.818 185.681 407.324 92.7163 -236.657 4.97325 -2.95696 -69.026 439.575 392.491 18.05 -27.2778 
151 370387553 1444456236 291.811 -402.221 172.19 -146.358 374.834 -297.096 194.427 -132.601 -536.857 -48.9736 105.213 411.951 
151 272450749 732559293 -348.9 35.6477 -604.605 -25.0825 30.6601 -421.798 -203.356 70.3051 -331.743 -170.627 -3.99725 -694.66 
154 1500897014 1440997991 -409.438 137.523 392.52 2.64299 501.013 96.2266 -286.345 400.163 534.214 -120.451 238.373 -45.4669 
156 1180487613 286036450 -36.2909 -731.859 -452.604 -130.779 135.331 296.661 -615.502 -184.188 -263.939 448.432 -412.34 107.995 
157 1463896856 1162000001 738.297 407.522 -147.905 317.725 51.802 137.938 547.207 375.95 -277.953 508.815 83.3735 267.986 
158 690908208 733105323 -112.812 -368.148 68.2812 155.27 -119.481 -218.736 194.896 -373.715 -158.81 -152.439 -113.914 8.35534 
158 1596014534 802876562 292.423 -230.152 263.444 -100.042 194.514 -473.551 346.286 -365.864 83.8913 -153.905 330.225 -293.998 
159 1053749167 1994211949 -1.3767 -25.9914 -401.163 -9.98025 215.85 -181.38 12.3013 231.926 -378.593 -23.6582 -42.0678 -203.95 
160 349530638 1068398401 314.324 -102.648 -453.859 -260.969 -79.0683 -323.845 -34.7013 197.752 -395.35 88.0561 -379.468 -382.355 
161 1837053285 394301727 -85.2224 -122.169 123.377 2.7126 4.08806 629.342 -215.736 1.12472 565.714 133.226 -119.206 187.006 
163 2052243294 836832187 10.7913 267.207 190.097 325.646 233.765 -79.5522 38.312 229.247 216.25 298.126 271.725 -105.705 
163 1624884851 1211403786 150.337 145.374 -254.659 253.915 -34.6242 -301.401 176.783 127.65 -351.937 227.468 -16.9002 -204.123 
164 1612789201 1288137835 133.541 16.6901 11.3303 -21.272 59.5355 -431.175 71.5265 215.474 -55.9433 40.742 -139.248 -363.901 
168 1954214486 2082625453 -196.18 -164.331 -400.139 156.911 92.7068 233.839 147.238 265.239 89.1564 -186.506 -336.863 -255.456 
169 1263066631 533687724 -348.485 132.027 -82.4097 -338.322 194.041 -104.116 -323.125 175.081 -69.8377 -363.681 150.987 -116.688 
177 1314838558 664873319 -161.514 0.243762 148.594 113.558 -200.216 285.789 -198.211 -155.133 200.778 150.255 -44.839 233.606 
178 1758454084 696497107 -112.645 -29.1702 -30.2922 18.4705 94.396 -382.284 -13.0209 -86.9975 -52.5924 -81.154 152.223 -359.984 
179 1598159363 1615853020 69.0616 -67.6176 -122.786 -142.363 404.99 -197.078 -103.932 -17.1203 11.3677 30.6309 354.492 -331.231 
180 1066454664 161297153 -316.845 146.29 365.113 285.926 -156.083 -156 232.691 -254.229 345.045 -263.611 244.435 -135.932 
181 1334983958 1868418928 -295.731 116.021 493.146 -29.1526 219.148 110.622 -372.774 78.8275 371.802 47.8903 256.341 231.966 
182 1756754827 189649490 213.726 -139.413 -339.011 -181.009 -96.9089 -468.533 158.701 -18.1145 -288.321 -125.984 -218.207 -519.223 
183 2117299802 915215302 244.639 -346.748 185.184 -123.864 -154.412 47.6083 -41.3778 -436.469 171.33 162.152 -64.6903 61.4625 
185 283131399 1143283941 222.839 549.714 -33.0651 -168.287 -276.989 -426.332 -243.147 21.7773 172.185 297.698 250.948 -631.582 
185 1826799791 1143283941 60.8225 -172.248 -188.737 297.698 250.948 -631.582 308.123 -203.984 -231.241 50.3977 282.685 -589.078 
188 1352962889 711717557 -413.629 260.859 -61.3102 -5.78044 -615.411 -56.413 -452.153 155.765 -311.559 32.7434 -510.317 193.836 
190 1914748534 1366996785 -40.9072 -38.6501 49.9099 -146.476 -657.067 -92.443 -322.354 -188.963 139.754 134.971 -506.754 -182.287 
193 810075651 683136585 172.398 -396.203 -163.706 81.564 339.642 -189.024 365.21 -157.263 -429.744 -111.247 100.702 77.014 
195 859217166 1223736203 -102.519 -116.616 -73.8194 -56.738 -272.711 135.415 -136.474 -314.365 30.057 -22.7836 -74.963 31.5387 
197 955334003 2105240378 171.129 -67.6186 -87.1379 -63.391 -5.38659 -30.9044 -44.9971 -87.232 -115.241 152.735 14.2269 -2.80134 
199 1670609410 1326706521 100.093 175.671 -14.0666 -626.059 278.263 -141.14 -156.2 24.4055 -370.961 -369.766 429.528 215.754 
200 1709115544 844159479 -68.9967 5.23992 -119.849 320.967 -135.568 -348.64 24.4681 -258.449 -325.876 227.503 128.121 -142.614 
202 1371586743 1943331911 -17.2341 87.4142 -232.925 -139.411 -519.313 29.1473 98.4932 59.3381 -25.177 -255.139 -491.237 -178.601 
205 499706271 247718850 96.1551 -407.556 609.955 175.161 -244.299 185.806 -47.2038 -461.423 435.322 318.519 -190.432 360.439 
205 499706271 1714992086 -47.2038 -461.423 435.322 186.124 226.055 233.839 343.21 -92.8572 592.185 -204.29 -142.511 76.9759 
207 1925920704 630229297 -148.072 48.3971 -407.019 -117.888 13.7543 64.0893 -298.027 -38.9822 -325.947 32.067 101.134 -16.9822 
208 512692674 190782646 172.369 167.959 104.532 -310.573 167.53 618.623 49.3886 93.3908 37.8301 -187.592 242.098 685.325 
209 321800613 1135444691 273.286 -208.454 199.629 58.4326 143.365 184.146 144.135 -229.495 134.59 187.583 164.406 249.184 
210 1326115740 1780242715 -9.98122 102.905 -112.004 355.959 -166.958 24.837 5.84562 125.353 -104.086 340.132 -189.406 16.9196 
211 1453697797 1976018356 249.486 -318.605 458.887 -38.8306 -442.889 -93.5625 92.6029 -698.204 184.159 118.052 -63.2895 181.166 
213 637043741 1175042849 -81.4045 220.519 248.746 -76.3192 -121.506 249.834 20.5005 184.311 284.035 -178.224 -85.2974 214.546 
217 578485938 840897782 -90.3552 173.686 208.341 346.075 -484.23 113.579 450.832 -96.7942 385.338 -195.112 -213.75 -63.4184 
219 1486551030 2084827233 99.8627 -305.066 79.3824 -319.542 184.959 314.33 -419.614 -117.712 332.95 199.935 -2.3947 60.7625 
221 942449951 1973171858 1.58552 -202.972 217.832 637.903 -145.406 304.329 75.0831 -368.977 182.835 564.406 20.5989 339.326 
224 425983448 538007656 -467.011 52.6161 -42.0949 8.8078 -516.977 178.679 -524.069 -292.363 311.742 65.8652 -171.998 -175.158 
224 529857966 1766364003 638.17 -227.742 27.8595 68.5896 -227.033 -208.937 306.095 -526.746 -147.742 400.665 71.9711 -33.336 
225 1193936021 1018847973 291.182 208.491 -301.694 169.071 184.217 445.187 -132.802 90.1152 89.898 593.055 302.592 53.595 
226 729076601 56713045 550.163 -19.2295 -166.884 223.79 96.232 -197.889 529.325 -30.7402 -110.653 244.628 107.743 -254.119 
228 92109381 1854648454 -355.95 97.97 -138.041 63.8596 54.4009 199.178 -387.654 83.6658 151.121 95.564 68.705 -89.9832 
229 1043072331 1804622096 5.5186 -69.8683 -14.9525 10.9112 -121.239 -10.1942 33.6524 -91.1111 -14.9934 -17.2227 -99.9961 -10.1532 
229 1495533957 310555220 -112.32 -24.2253 -156.165 292.542 486.468 26.6957 276.159 -51.5899 -64.4589 -95.9377 513.832 -65.0101 
230 1309321679 862938551 -377.957 -202.859 134.402 176.323 122.928 -279.412 -80.2443 341.76 -68.7882 -121.39 -421.691 -76.2224 
233 1309872826 981145496 135.451 -8.90629 304.646 143.394 -250.284 2.6478 32.7052 31.0039 167.851 246.14 -290.194 139.443 
235 899300908 83659810 -206.24 -302.251 -146.884 103.193 -49.7827 -211.517 -51.9043 -308.813 -331.785 -51.1433 -43.2211 -26.6172 
235 1451040221 1769936836 -246.855 104.569 112.569 197.154 719.673 -522.987 92.0905 -6.71467 30.9235 -141.791 830.957 -441.342 
235 1630837392 1085734497 245.883 -266.397 45.2097 -580.023 112.375 -370.429 -282.111 -514.939 48.5083 -52.0289 360.918 -373.728 
236 1215937285 93048593 271.555 88.296 340.84 212.894 -74.7849 5.38975 314.892 91.724 325.236 169.557 -78.2129 20.9945 
238 1855515749 1852904875 -348.944 380.148 175.455 -79.6322 84.3928 -129.875 -406.598 381.419 -41.0712 -21.9787 83.1216 86.6515 
240 1302605104 1810627334 -307.86 -289.49 282.13 238.08 304.028 -0.706777 -97.3419 -114.338 -264.121 27.5614 128.876 545.544 
242 771987639 479374652 158.002 349.728 135.896 -234.314 -118.709 133.88 31.9809 401.996 55.2436 -108.293 -170.977 214.533 
245 357665933 140489048 -238.353 405.796 -50.2909 462.973 -501.293 324.538 438.815 368.615 -152.405 -214.195 -464.112 426.652 
246 1257420431 1733866979 279.247 257.943 -326.636 70.4738 -134.805 371.937 416.375 127.088 -307.256 -66.654 -3.95044 352.557 
247 1613105383 874700815 -69.8772 11.0236 -42.2486 93.3195 309.102 -212.569 167.683 56.2683 -159.436 -144.241 263.857 -95.3817 
248 1309150393 1014096856 182.42 -109.94 466.217 76.1445 -173.958 -73.4908 209.778 4.74708 416.975 48.7856 -288.646 -24.2492 
248 1089488309 1935098527 5.22034 123.982 -255.141 -166.323 -792.088 325.4 317.05 -160.858 -301.511 -478.153 -507.248 371.77 
251 1832434421 1341500749 -54.9373 -410.705 315.113 46.5493 12.798 -84.2326 -242.196 -218.632 -58.4871 233.808 -179.275 289.367 
252 614449003 1165051788 -63.9269 -210.734 -600.895 -228.676 -96.3382 26.2209 -206.564 157.914 -199.344 -86.0382 -464.987 -375.33 
253 1444360787 127124398 125.434 54.5858 -433.692 76.9768 -25.7826 563.154 577.951 9.44435 217.428 -375.54 19.3588 -87.9661 
254 1731023318 1365253883 -294.337 -39.2309 -72.5797 -182.208 55.5297 36.3262 -293.891 66.7034 24.6664 -182.654 -50.4046 -60.9199 
255 907952186 652591716 221.644 -3.28791 544.695 -102.491 7.11596 55.7497 32.3169 182.618 70.7384 86.8367 -178.789 529.707 
257 1243876647 1136781594 215.431 -316 -138.748 -173.638 -50.8384 29.3451 10.1948 6.03173 -217.425 31.5983 -372.87 108.022 
257 1094367360 1340565517 -298.715 453.109 -53.7978 -306.166 436.083 -247.998 -304.045 347.28 -157.367 -300.836 541.912 -144.429 
258 755670807 574405500 -337.642 63.8386 387.757 -229.005 -392.25 -343.409 -406.364 -196.096 -393.096 -160.283 -132.315 437.445 
259 392206618 149770807 -197.886 134.731 -196.304 68.5962 -336.006 -8.88164 145.56 83.3403 -40.1453 -274.85 -284.615 -165.041 
260 1227904849 403473902 243.904 316.445 -398.342 -123.137 -254.775 -336.266 388.283 103.517 -425.747 -267.516 -41.8469 -308.862 
261 2013512716 946557173 729.686 38.4661 38.0708 -197.212 -429.968 -197.943 405.648 -291.582 -584.861 126.826 -99.9203 424.989 
262 510049708 1127626371 -74.8083 -156.783 56.7938 -54.6699 471.551 -145.916 241.409 255.676 -119.976 -370.887 59.0912 30.8542 
264 1783848082 1681984904 384.881 45.9881 -242.708 -237.607 202.327 -246.408 261.846 -118.728 -151.98 -114.572 367.042 -337.136 
265 82458596 443371913 -158.363 340.552 -209.54 -130.464 -11.1858 -355.841 18.7455 241.968 -344.993 -307.573 87.3983 -220.388 
266 1505982375 203732950 67.7054 -264.537 -165.67 379.861 110.133 -113.451 127.108 -12.983 76.4629 320.459 -141.421 -355.584 
267 1383512770 931221612 220.844 -306.282 -380.797 -82.5908 411.143 -238.501 177.135 156.566 56.7453 -38.8823 -51.7051 -676.043 
268 1462627547 872921612 270.475 22.5026 293.588 -236.275 -25.2526 -16.1648 -39.4399 173.373 373.28 73.6404 -176.123 -95.8566 
269 869544082 1120656374 -835.999 103.425 -67.3589 -400.513 143.672 -331.245 -626.522 -131.279 -184.446 -609.991 378.376 -214.157 
271 163531032 113094050 69.6667 60.3863 168.703 202.13 -11.4131 76.353 100.664 90.7776 75.9275 171.132 -41.8043 169.128 
271 113094050 581281580 171.132 -41.8043 169.128 -260.082 239.328 23.442 116.199 -24.4697 -78.4983 -205.149 221.993 271.069 
272 661753803 113886755 104.948 389.655 -168.948 -26.1795 -404.708 -213.755 195.953 -3.88967 180.168 -117.184 -11.1628 -562.871 
273 17634448 1045346931 244.26 -519.194 108.76 -175.52 28.8326 -173.839 186.209 -377.378 -346.5 -117.468 -112.983 281.421 
274 302250951 293292772 -39.0942 -429.71 7.41867 -385.461 -451.876 402.634 -401.086 -595.352 106.909 -23.4692 -286.234 303.144 
275 1796176245 520329059 201.216 -255.753 106.879 168.943 19.1795 -457.475 -97.1746 -41.025 -60.649 467.333 -195.548 -289.947 
276 739462165 366091076 -35.2635 57.5302 1.03481 -82.157 -50.7866 223.39 -47.2635 -99.7143 40.8993 -70.157 106.458 183.525 
277 907717730 1997292302 -184.695 -369.839 -77.5859 337.153 158.599 57.2566 101.361 -60.9778 363.753 51.0972 -150.263 -384.082 
278 782974704 1917611263 -291.434 -248.181 235.883 -8.25859 -78.2052 -148.924 -309.628 -346.158 116.162 9.93511 19.772 -29.2027 
279 1341954737 1959375940 177.509 -53.2703 262.757 -67.7114 105.872 -74.1073 256.709 27.7125 -0.568908 -146.912 24.8891 189.219 
279 1314330399 814803343 136.788 -239.642 -251.957 164.152 -284.187 179.618 211.803 -461.437 24.4653 89.1371 -62.3916 -96.8038 
281 1450354858 118025900 18.1614 -77.9203 314.566 409.571 -19.9647 81.7047 245.817 168.14 265.592 181.915 -266.025 130.679 
281 607856348 1077222241 -142.112 219.969 43.2802 699.209 -24.0974 44.3246 46.3572 415.047 237.128 510.741 -219.176 -149.524 
281 607856348 1958635861 46.3572 415.047 237.128 -126.574 121.237 -92.9358 -271.875 317.682 61.0022 191.658 218.602 83.1904 
282 1275571669 1627834252 118.253 113.456 240.935 367.007 407.508 -363.437 -79.0848 300.746 -213.833 564.344 220.218 91.3306 
282 1897964015 1627834252 -409.893 31.7288 -399.913 564.344 220.218 91.3306 -188.91 -357.591 -111.469 343.361 609.538 -197.113 
284 660214886 1675378018 -162.129 165.968 102.851 6.62464 22.4782 -573.044 -88.7641 441.661 -159.99 -66.74 -253.215 -310.203 
287 1574577843 1999887347 -341.775 65.0967 -59.3294 32.6169 0.74001 -160.94 -322.627 134.982 -108.792 13.469 -69.1455 -111.477 
288 1215664162 240728542 -2.20931 67.5817 193.99 -257.916 231.768 473.469 -236.25 8.75079 440.863 -23.8757 290.599 226.596 
292 1108190446 1203063821 205.947 395.097 -5.59277 180.394 -170.01 162.954 409.121 304.444 139.022 -22.781 -79.3568 18.3391 
295 1516057146 1864037656 183.095 431.126 -189.418 66.0664 79.751 1.79679 232.284 254.577 -272.221 16.8779 256.3 84.5992 
296 1263605379 284051100 -35.3173 -3.29598 30.1544 -210.525 195.383 -136.394 -5.55054 106.108 -156.077 -240.292 85.9794 49.8376 
296 790875863 676080388 344.098 171.308 -323.852 -147.853 -321.388 -289.853 228.368 -349.545 -477.625 -32.1232 199.465 -136.08 
298 1057586284 392480792 -159.963 -158.648 158.81 -251.548 117.402 249.304 -172.376 27.487 63.4641 -239.135 -68.7334 344.65 
300 740786282 1945040863 -345 589.152 502.277 -118.938 -147.479 4.54005 -488.465 -155.912 304.773 24.5269 597.585 202.044 
301 1656055288 1940817869 500.806 -225.771 127.596 121.515 -70.8871 -110.442 509.859 -249.727 -71.2072 112.462 -46.9307 88.3614 
302 993140938 1676319807 -93.3014 78.3559 105.918 17.8042 -268.421 -286.733 -132.179 -247.698 -289.078 56.6816 57.6327 108.262 
303 1800134646 1617293138 276.856 78.2145 98.4441 130.143 -114.903 -372.789 -38.7556 -51.3329 -34.9759 445.755 14.6444 -239.369 
306 931225241 1975659578 312.01 235.137 330.339 -97.5981 68.8454 -372.445 -146.885 271.501 284.707 361.297 32.4808 -326.813 
307 2008221939 2034178692 -436.685 -89.1775 -245.172 63.0422 9.02255 79.4103 -441.159 13.3624 70.8641 67.5164 -93.5173 -236.626 
310 1723326489 319153820 -55.8583 -236.803 -62.0749 305.245 106.443 -633.333 -43.7072 245.869 -483.819 293.094 -376.229 -211.589 
311 1158479610 1883645270 277.104 78.8528 -572.277 221.456 -404.283 -80.1911 116.697 -294.68 -617.221 381.863 -30.7504 -35.2471 
312 1337234893 656500592 599.71 73.5267 -278.46 -196.568 96.8182 101.222 66.776 -124.578 275.421 336.367 294.923 -452.659 
312 1876622651 122212162 426.464 124.507 152.566 260.997 363.079 -10.4029 447.279 357.755 134.357 240.181 129.83 7.80613 
313 915304972 136222577 -219.359 191.935 252.306 178.983 -190.528 311.446 -219.153 106.472 119.583 178.777 -105.065 444.169 
314 1110793179 1264023310 -68.2177 -266.452 -51.6573 -386.71 87.0432 81.7409 -166.16 148.596 -7.37726 -288.768 -328.005 37.4608 
315 170810866 1048571657 177.017 259.248 -39.5069 -597.642 -75.5534 -67.3441 -315.045 197.842 341.59 -105.581 -14.1478 -448.44 
316 248170857 1972162364 -416.068 114.122 313.298 241.472 -348.875 -120.851 -267.746 -223.816 -309.87 93.1497 -10.9366 502.317 
317 1181373879 32152943 180.037 214.793 534.518 -370.503 461.19 23.3891 -75.9822 698.841 439.21 -114.484 -22.8575 118.697 
318 39788145 147442651 -227.388 -304.591 -46.5363 444.221 -252.835 133.519 -72.4442 -557.726 -61.2947 289.277 0.30076 148.277 
318 147442651 1867724198 289.277 0.30076 148.277 -18.2213 -135.472 276.005 154.992 -174.465 68.88 116.064 39.2943 355.403 
320 1078820862 1916452975 -91.6749 -150.893 -222.462 232.43 -121.352 91.2654 165.418 -213.489 -255.512 -24.663 -58.7556 124.315 