ITEM: TIMESTEP
0
ITEM: NUMBER OF TALLIES
0
ITEM: BOX BOUNDS oo rr pp
0 10
0 10
-0.5 0.5
ITEM: TALLIES c_1[1] c_1[2] c_1[3] c_1[4] c_1[5] c_1[6] c_1[7] 
ITEM: TIMESTEP
100
ITEM: NUMBER OF TALLIES
110
ITEM: BOX BOUNDS oo rr pp
0 10
0 10
-0.5 0.5
ITEM: TALLIES c_1[1] c_1[2] c_1[3] c_1[4] c_1[5] c_1[6] c_1[7] 
26 1981826294 2 5.68616e-05 2.00659 4.89521 0 
29 1218629270 2 2.55081e-05 2.33546 3.63043 0 
34 1477637927 2 8.36726e-05 3.64931 2.32585 0 
26 1644766328 1 3.81446e-05 2.00563 4.91059 0 
26 978785944 2 4.42129e-05 2.00487 4.92258 0 
31 1884604530 1 8.08024e-05 2.72741 3.04994 0 
34 401215737 2 2.00016e-05 3.48462 2.41638 0 
26 307340665 2 9.65308e-05 2.00239 4.962 0 
26 763183589 1 3.69318e-05 2.00727 4.88438 0 
29 835275491 2 3.59386e-05 2.27115 3.76711 0 
30 1704066380 2 7.0601e-06 2.374 3.55014 0 
28 131857847 2 5.56044e-05 2.18068 3.98793 0 
34 681546468 2 3.78707e-05 3.43248 2.44505 0 
31 471322542 1 9.55588e-05 2.69063 3.09439 0 
31 261127693 1 6.56749e-05 2.61847 3.18162 0 
31 716708583 1 4.20383e-05 2.63341 3.16356 0 
36 1090117502 2 2.32069e-05 4.22589 2.10756 0 
34 33979509 1 6.76226e-05 3.4418 2.43992 0 
27 593648642 1 6.42741e-05 2.05866 4.44049 0 
35 1043985111 1 6.45632e-05 4.05879 2.15244 0 
32 755122857 1 8.52854e-05 2.94868 2.81903 0 
33 2092031270 1 7.0507e-05 3.16502 2.63231 0 
35 86281131 2 6.35951e-05 4.01508 2.16974 0 
32 645043378 2 1.62041e-05 2.92231 2.8438 0 
31 85310686 2 2.18875e-05 2.58904 3.21719 0 
32 1253930246 1 3.02782e-05 3.08083 2.69494 0 
30 1833726377 2 3.26088e-05 2.55438 3.2659 0 
28 2144282272 2 1.31077e-05 2.21014 3.89727 0 
29 462088289 2 3.88921e-05 2.2628 3.78485 0 
32 1452135494 2 9.9874e-05 2.97424 2.79503 0 
34 1147336294 2 1.55189e-05 3.68476 2.30635 0 
35 205916410 2 6.5892e-05 4.01703 2.16897 0 
36 2026896096 2 1.54648e-05 4.2667 2.09708 0 
27 1099695430 2 5.81228e-05 2.03638 4.55729 0 
28 1590514873 2 6.84628e-05 2.1967 3.93861 0 
33 341925384 2 6.71898e-05 3.30473 2.5308 0 
31 742397088 2 2.56599e-05 2.73917 3.03572 0 
35 1890793616 1 5.67224e-05 3.95003 2.1955 0 
30 182763698 1 8.25325e-06 2.4706 3.39792 0 
33 558010513 1 7.81319e-05 3.18725 2.61615 0 
30 1028785073 1 7.87646e-05 2.53163 3.30176 0 
34 1938839045 1 1.22041e-05 3.43516 2.44357 0 
30 875382240 1 9.69033e-05 2.37592 3.54711 0 
30 111108274 2 6.68727e-05 2.4062 3.4994 0 
28 1993443680 2 5.98426e-05 2.14101 4.11001 0 
31 1070550005 2 8.95928e-05 2.58557 3.22139 0 
32 866322253 2 4.42168e-05 2.9432 2.82418 0 
34 1496462028 1 8.19644e-06 3.52897 2.392 0 
32 938574246 2 8.05315e-05 3.00104 2.76987 0 
29 2145201050 1 7.76323e-05 2.2944 3.7177 0 
28 789279357 1 3.86397e-05 2.14269 4.10484 0 
27 1196816714 2 8.87097e-06 2.07089 4.37638 0 
15 1996264765 2 1.01054e-07 4.20479 7.88702 0 
18 507540026 2 7.35764e-05 3.22023 7.40781 0 
24 133827622 2 3.81675e-05 2.08788 5.71268 0 
20 1913878344 1 4.31811e-05 2.58586 6.77896 0 
22 1798134215 1 1.535e-05 2.34624 6.39248 0 
14 2032313113 1 2.36658e-05 4.51072 7.95607 0 
16 1951615391 1 1.90147e-05 3.85674 7.76757 0 
24 967696905 1 3.4542e-05 2.0689 5.6132 0 
21 1961759580 2 1.38178e-05 2.48512 6.62496 0 
18 919206638 1 1.77817e-05 3.22805 7.41349 0 
24 64221664 1 1.87265e-06 2.07551 5.64782 0 
14 2014572673 1 9.11921e-05 4.47799 7.95193 0 
16 1334261094 1 1.26578e-05 3.87423 7.77449 0 
24 1157571555 1 5.77311e-05 2.0313 5.41609 0 
25 1627200575 1 3.30224e-07 2.01098 5.17452 0 
21 420595703 1 5.65483e-05 2.51346 6.66962 0 
22 719677078 1 1.19149e-05 2.34512 6.3901 0 
23 418345656 1 7.24602e-05 2.20209 6.07796 0 
25 718106357 2 4.39715e-05 2.01664 5.26445 0 
17 1353344112 1 2.76845e-05 3.49869 7.59135 0 
25 1911863899 2 5.15237e-06 2.02314 5.36778 0 
18 252023816 1 6.23928e-05 3.15489 7.36033 0 
24 186353513 1 9.6701e-05 2.03315 5.42575 0 
17 1401264651 1 2.90596e-05 3.4578 7.56887 0 
18 1753357622 1 1.47099e-05 3.32522 7.48408 0 
21 245858023 1 9.72713e-05 2.42665 6.53283 0 
21 988814231 1 4.97772e-05 2.37983 6.45906 0 
23 209227089 2 9.75843e-05 2.19539 6.05734 0 
22 1216561879 1 1.05901e-05 2.27316 6.23716 0 
23 182697843 2 9.38231e-05 2.10283 5.77248 0 
19 1258128491 2 5.10885e-05 3.04718 7.27347 0 
19 810062736 2 7.30061e-05 2.87862 7.11517 0 
20 907857673 1 7.89818e-06 2.7997 7.03745 0 
23 898282071 1 1.08874e-05 2.15662 5.93801 0 
22 1420580253 2 5.12863e-05 2.34203 6.38352 0 
25 387202541 2 1.40649e-05 2.00168 5.02677 0 
25 413092396 1 9.77007e-05 2.01586 5.25216 0 
21 1589734411 1 2.41428e-05 2.53792 6.70816 0 
20 612269895 1 4.76132e-05 2.74212 6.96785 0 
25 463055005 2 8.21586e-05 2.0026 5.04128 0 
25 402211274 1 1.65048e-05 2.00154 5.02452 0 
19 1646372224 1 4.43225e-05 2.82883 7.06842 0 
25 1411877090 2 8.74605e-05 2.01026 5.16313 0 
23 125056457 1 9.99624e-05 2.15915 5.94582 0 
23 696520272 1 3.43947e-05 2.10494 5.77898 0 
25 922790943 1 3.05895e-05 2.02041 5.32435 0 
24 1657988655 1 8.25924e-05 2.04255 5.47503 0 
21 1540733402 1 6.33918e-05 2.45088 6.57101 0 
22 1917102217 1 4.3846e-05 2.29336 6.28009 0 
24 2089494252 1 9.16644e-05 2.0813 5.67818 0 
25 816067034 1 7.2742e-05 2.00312 5.04962 0 
24 1219240809 2 6.1751e-05 2.05967 5.56478 0 
23 1381946148 2 1.11954e-05 2.11503 5.81001 0 
24 1570850209 2 1.62386e-05 2.09109 5.72949 0 
39 1032346366 2 4.10983e-05 5.20794 2.00839 0 
38 1316250986 2 2.34085e-05 5.04927 2.00592 0 
11 1769024898 1 3.7835e-05 5.70844 7.9093 0 
13 388559186 1 8.31553e-05 5.12095 7.99408 0 
ITEM: TIMESTEP
200
ITEM: NUMBER OF TALLIES
177
ITEM: BOX BOUNDS oo rr pp
0 10
0 10
-0.5 0.5
ITEM: TALLIES c_1[1] c_1[2] c_1[3] c_1[4] c_1[5] c_1[6] c_1[7] 
26 1474125432 2 9.03162e-06 2.01057 4.83199 0 
28 1757181438 2 8.0595e-06 2.14184 4.10746 0 
37 1888198689 1 1.43948e-05 4.77073 2.01109 0 
32 976026316 1 2.80561e-05 2.89369 2.87067 0 
34 1441862570 2 2.98139e-05 3.63277 2.33494 0 
28 1861713593 1 8.99683e-05 2.20111 3.92505 0 
33 717134524 1 2.74753e-05 3.26701 2.5582 0 
27 1147938901 2 7.17083e-05 2.04238 4.52582 0 
34 943774032 2 1.27753e-05 3.40868 2.45813 0 
31 83114096 2 8.21022e-05 2.61935 3.18055 0 
32 792737053 2 7.71691e-05 2.99047 2.77979 0 
35 1513076980 2 4.31641e-05 4.04327 2.15858 0 
37 1821930840 1 9.08976e-05 4.62083 2.03002 0 
27 1233510614 2 5.80525e-06 2.07617 4.34874 0 
35 1116861963 2 7.81599e-05 3.77883 2.26328 0 
29 1653979097 2 7.17499e-05 2.34286 3.6147 0 
29 314182980 1 5.95417e-05 2.36268 3.57259 0 
28 1299837723 2 6.17768e-05 2.14977 4.08306 0 
32 163972715 2 7.5735e-05 3.05829 2.71611 0 
29 1983723100 2 2.59175e-05 2.30914 3.68637 0 
28 818592984 1 8.25354e-05 2.17604 4.00221 0 
31 1804014236 1 5.19366e-05 2.6202 3.17953 0 
26 34748222 2 7.13349e-05 2.02275 4.63842 0 
26 400986291 1 4.28072e-05 2.02204 4.64973 0 
30 1422540921 1 9.62441e-05 2.57214 3.23792 0 
29 1385490594 1 1.99324e-05 2.35341 3.5923 0 
26 1306380833 1 3.76195e-05 2.00122 4.98055 0 
35 1413535506 1 7.69311e-05 3.83572 2.24076 0 
29 997023326 1 5.00782e-05 2.21533 3.88572 0 
27 1079803776 2 4.2272e-05 2.03943 4.54129 0 
35 822439348 2 9.70809e-05 4.02774 2.16473 0 
37 430089258 1 9.93042e-05 4.75678 2.01285 0 
38 416635181 2 8.68626e-05 4.90974 2.00592 0 
30 1948154904 1 5.7364e-05 2.56369 3.25123 0 
33 755768775 2 5.36611e-05 3.12115 2.66418 0 
28 791166624 2 1.75097e-05 2.13551 4.12696 0 
27 1737802200 1 2.34736e-05 2.08521 4.30132 0 
29 1333085462 1 3.7085e-05 2.33875 3.62345 0 
35 628929796 2 8.20939e-06 3.95197 2.19473 0 
37 614843453 2 1.95294e-06 4.53449 2.04093 0 
29 951193867 1 1.22155e-05 2.30147 3.70268 0 
33 1099800178 2 8.79848e-05 3.38911 2.46949 0 
37 961441399 1 3.56603e-05 4.57037 2.0364 0 
30 1441939278 1 4.06167e-05 2.45462 3.4231 0 
37 1363592626 2 7.39734e-06 4.58343 2.03475 0 
37 282973542 2 1.89963e-05 4.50455 2.04471 0 
35 1187434778 2 8.89606e-05 3.75915 2.27107 0 
33 347651181 2 1.81935e-05 3.17925 2.62196 0 
37 1209308600 1 3.56682e-05 4.61062 2.03131 0 
31 1641276991 2 7.61476e-05 2.57475 3.23447 0 
35 2096102684 1 2.61878e-05 3.89399 2.21769 0 
32 573402874 1 9.37352e-05 2.89988 2.86486 0 
35 1467351214 1 2.59871e-05 3.86383 2.22963 0 
34 1840902604 1 7.11316e-05 3.5685 2.37027 0 
28 1786043848 1 9.22561e-05 2.16169 4.04639 0 
35 114004338 1 7.78266e-05 3.77185 2.26604 0 
32 682981537 2 2.22289e-05 3.02711 2.74538 0 
33 1961699749 1 5.36008e-05 3.27719 2.55081 0 
37 1811082184 1 7.24565e-05 4.53695 2.04062 0 
34 1189011160 1 1.56351e-05 3.41315 2.45568 0 
35 1952967951 1 1.27835e-05 3.84578 2.23677 0 
35 148795310 1 6.91439e-05 3.83115 2.24257 0 
33 1710912256 1 1.17735e-05 3.34367 2.50251 0 
33 1905284630 1 9.54509e-05 3.33225 2.51081 0 
31 508223512 2 7.23626e-06 2.64814 3.14575 0 
30 2028529702 2 5.36163e-05 2.47112 3.3971 0 
26 691873592 1 3.78996e-05 2.01037 4.83523 0 
36 1560560094 1 4.16205e-05 4.09806 2.14038 0 
33 342101027 1 4.45715e-05 3.31456 2.52366 0 
34 1306503459 2 8.9619e-05 3.62335 2.34012 0 
32 645648023 1 9.44726e-05 2.93486 2.83201 0 
29 796477682 2 9.6076e-05 2.35944 3.57948 0 
26 1735244394 1 4.02452e-05 2.01191 4.81069 0 
28 656213847 2 7.96908e-05 2.1655 4.03466 0 
27 2007803474 2 9.71477e-05 2.06225 4.42166 0 
27 1659381238 1 8.1225e-05 2.04344 4.52028 0 
30 1065878118 2 8.31269e-05 2.49895 3.35325 0 
26 2023507702 2 7.63238e-05 2.00752 4.88055 0 
26 1131890112 1 6.90442e-05 2.01154 4.81661 0 
26 1561784476 1 6.01588e-05 2.00742 4.88203 0 
26 1785471988 1 1.46651e-05 2.00132 4.97901 0 
17 1014150664 2 3.59292e-05 3.4803 7.58124 0 
15 718095529 1 2.76911e-05 4.08056 7.85512 0 
15 1403240190 2 8.13671e-05 4.29631 7.91052 0 
16 1180167689 1 2.52336e-05 3.99987 7.82424 0 
19 1599561599 1 5.75829e-05 2.86893 7.10608 0 
14 1219895615 1 2.32935e-05 4.74155 7.98523 0 
22 113802064 1 1.36043e-05 2.35211 6.40494 0 
24 568445647 2 7.5908e-05 2.06901 5.61377 0 
17 1482560321 1 8.44924e-05 3.41798 7.54698 0 
17 1373215833 2 7.50097e-05 3.4627 7.57157 0 
15 1856177367 2 6.19264e-05 4.11045 7.8628 0 
22 1285213544 1 6.09934e-05 2.22972 6.14485 0 
16 387291397 1 1.2171e-05 3.92633 7.79512 0 
17 1407265067 2 9.47866e-05 3.57659 7.63417 0 
18 2094287930 2 9.8279e-05 3.38079 7.52446 0 
19 1997005346 1 3.45646e-05 3.0192 7.24719 0 
15 787190055 1 4.96663e-05 4.26495 7.90247 0 
21 1862674077 2 4.03659e-05 2.55083 6.7285 0 
14 21470975 2 4.76917e-05 4.55714 7.96193 0 
24 1472954012 2 2.05507e-05 2.03276 5.42374 0 
15 1689755964 1 4.82858e-05 4.14236 7.87099 0 
17 47211128 1 5.70129e-05 3.55727 7.62355 0 
19 1468541322 1 8.23801e-05 3.07106 7.29589 0 
18 1639495101 2 4.8588e-05 3.10511 7.32417 0 
16 199961921 2 9.81516e-05 3.98171 7.81704 0 
23 270131166 1 3.96439e-05 2.1547 5.93211 0 
19 586419406 1 8.99499e-05 2.83798 7.07701 0 
20 699090183 1 4.0026e-05 2.80476 7.04356 0 
19 1121803701 2 6.21698e-05 3.01143 7.23989 0 
20 535162055 1 1.82633e-05 2.75489 6.98328 0 
15 958338957 2 2.49365e-05 4.12884 7.86752 0 
17 1846838519 2 6.91229e-06 3.61449 7.65501 0 
17 1846430150 1 6.87843e-05 3.61168 7.65347 0 
16 537530672 2 9.95313e-05 3.8018 7.74581 0 
16 492845474 2 6.15162e-05 3.74167 7.72201 0 
15 1712455027 1 1.47041e-05 4.11598 7.86422 0 
24 1637332029 2 2.80992e-05 2.03518 5.43643 0 
22 1788126203 1 8.42972e-05 2.26011 6.20944 0 
23 1356192863 1 2.64726e-05 2.12305 5.83471 0 
19 1333209608 1 9.01519e-05 3.0194 7.24738 0 
14 628774136 2 1.57403e-05 4.6554 7.97434 0 
13 238070397 1 2.32524e-05 4.83759 7.99408 0 
17 470452397 1 2.84603e-05 3.39308 7.53329 0 
18 1587586079 1 1.32812e-05 3.25326 7.43181 0 
23 458816257 2 1.3518e-05 2.15679 5.93856 0 
17 1518138520 2 1.58908e-05 3.41879 7.54742 0 
21 873893385 2 9.40959e-05 2.48736 6.62848 0 
22 78049803 2 4.64446e-06 2.27096 6.2325 0 
17 1902936593 2 2.13327e-05 3.47413 7.57785 0 
16 10054557 1 4.20526e-05 3.86078 7.76917 0 
20 2020313341 1 9.91141e-05 2.68833 6.90283 0 
22 2146232364 2 7.43521e-05 2.23755 6.16149 0 
25 797113700 1 1.91663e-05 2.0093 5.14788 0 
21 963843740 2 7.30296e-05 2.40799 6.50342 0 
19 1447706388 2 7.96201e-05 2.98079 7.21112 0 
18 347282521 2 8.8093e-05 3.22277 7.40965 0 
21 1626720385 1 6.96871e-05 2.55709 6.73836 0 
20 1535375428 1 2.63732e-05 2.69905 6.91579 0 
22 455769201 1 1.48698e-05 2.26297 6.21552 0 
15 1530645514 1 2.21729e-05 4.11205 7.86321 0 
20 107592699 1 8.07684e-05 2.80779 7.04723 0 
25 86167976 1 5.60877e-06 2.02271 5.36093 0 
23 751576797 2 1.28438e-05 2.12272 5.83368 0 
24 1858440102 2 2.34256e-05 2.03702 5.44606 0 
25 802589412 2 3.04816e-05 2.0096 5.15254 0 
23 200596370 2 7.63649e-05 2.13037 5.85722 0 
24 645909170 1 9.32219e-05 2.04278 5.47625 0 
22 363440662 1 5.39623e-05 2.27541 6.24195 0 
24 52720036 1 8.52892e-05 2.06918 5.61464 0 
25 178628192 1 9.23935e-05 2.01209 5.1921 0 
25 1966765197 2 4.05872e-05 2.00956 5.15203 0 
24 1190818059 1 5.91368e-05 2.08902 5.71866 0 
25 2135857282 2 1.93435e-05 2.01372 5.21808 0 
40 1457497756 1 9.96434e-05 5.71168 2.09153 0 
43 186699496 2 1.77004e-05 6.77802 2.59092 0 
41 38108241 2 4.86052e-05 6.27625 2.28509 0 
41 1545449343 1 7.85109e-05 6.2625 2.27965 0 
43 1785570263 2 6.16834e-05 6.91097 2.68752 0 
39 1136889928 2 4.54796e-05 5.31742 2.02222 0 
39 1482411032 1 3.31699e-05 5.45306 2.03936 0 
41 1243137189 1 4.92894e-05 6.1842 2.24864 0 
41 1849239582 1 4.98737e-05 6.16742 2.242 0 
40 1220242956 2 2.63684e-05 5.70787 2.09055 0 
41 1318263021 2 4.00578e-05 6.05455 2.19731 0 
40 1452258459 2 6.70046e-05 5.909 2.1422 0 
41 146180244 2 7.25092e-05 6.00299 2.1769 0 
39 910703967 1 4.67408e-05 5.25146 2.01389 0 
38 1156250464 2 4.28043e-05 5.14701 2.00592 0 
12 2084897920 1 9.80974e-05 5.3517 7.97345 0 
11 1522806239 2 5.20513e-05 5.86788 7.86836 0 
11 1662313406 1 2.47823e-05 5.85318 7.87214 0 
12 217148197 1 5.53812e-06 5.3121 7.97845 0 
12 2052294963 1 8.4346e-05 5.54739 7.94873 0 
11 1916043098 2 9.31162e-05 5.70485 7.91022 0 
8 1894213200 2 5.92804e-06 6.69272 7.47105 0 
12 60391264 2 5.21643e-05 5.28247 7.98219 0 
ITEM: TIMESTEP
300
ITEM: NUMBER OF TALLIES
179
ITEM: BOX BOUNDS oo rr pp
0 10
0 10
-0.5 0.5
ITEM: TALLIES c_1[1] c_1[2] c_1[3] c_1[4] c_1[5] c_1[6] c_1[7] 
27 1223975667 1 3.73404e-05 2.04476 4.51338 0 
29 1683607577 2 8.12078e-06 2.29332 3.71998 0 
28 925600513 1 3.42232e-05 2.13725 4.12159 0 
28 1678425406 2 8.02041e-05 2.18802 3.96533 0 
26 2059657615 1 4.86166e-05 2.01014 4.83882 0 
27 1820724201 2 3.28642e-05 2.05169 4.47702 0 
27 1658951911 1 8.71626e-05 2.07024 4.37979 0 
34 867511759 2 1.70532e-05 3.64343 2.32908 0 
26 1300583847 2 9.40616e-05 2.00276 4.95608 0 
32 1266794087 2 6.32479e-05 2.87795 2.88545 0 
35 1608557314 2 1.39739e-05 3.81309 2.24972 0 
29 1034484540 2 6.46914e-05 2.25445 3.8026 0 
28 1814194221 2 6.2315e-05 2.16622 4.03242 0 
30 667654680 2 1.82467e-05 2.56653 3.24676 0 
37 708686628 2 7.39763e-05 4.73321 2.01583 0 
30 124809492 2 3.80195e-05 2.37883 3.54252 0 
36 1292507307 2 5.39317e-05 4.15512 2.12573 0 
29 1020943511 1 8.39309e-05 2.34833 3.60309 0 
30 503952585 1 1.43685e-06 2.38446 3.53365 0 
30 2145671836 1 4.30911e-05 2.38976 3.52531 0 
29 650821973 1 4.96556e-05 2.23292 3.84833 0 
30 1345958134 1 1.85031e-05 2.46157 3.41216 0 
32 1052539597 2 8.4404e-05 2.90147 2.86337 0 
26 1720283621 1 4.86659e-05 2.02299 4.63452 0 
33 1738294946 2 9.88931e-06 3.37372 2.48067 0 
29 767949912 1 9.51122e-05 2.27799 3.75257 0 
28 619568967 2 3.59641e-05 2.13888 4.11657 0 
34 941607161 2 8.83479e-05 3.40218 2.46171 0 
28 375698123 1 7.46494e-05 2.15307 4.07292 0 
37 1565024114 1 8.1842e-05 4.72101 2.01737 0 
38 1814357299 2 5.70504e-06 4.82127 2.00592 0 
35 908107597 1 3.7408e-05 3.91749 2.20838 0 
32 577882491 1 6.68805e-05 2.97563 2.79372 0 
30 798873805 1 9.49608e-05 2.40103 3.50754 0 
36 1921316315 1 7.15565e-06 4.11487 2.13607 0 
29 1218636318 1 4.99328e-05 2.24279 3.82736 0 
32 1187830235 2 2.84641e-05 2.97736 2.7921 0 
32 558795079 2 4.563e-05 2.86002 2.90229 0 
29 789792868 2 4.94603e-05 2.27031 3.76889 0 
33 1191944153 2 9.14614e-05 3.29835 2.53544 0 
37 1440066481 1 5.09621e-06 4.53803 2.04048 0 
32 493469476 1 7.621e-05 3.00478 2.76635 0 
30 1295952221 2 7.84051e-05 2.49804 3.35468 0 
33 1490885301 1 4.23131e-05 3.23501 2.58146 0 
37 1209834961 2 6.50203e-05 4.59081 2.03382 0 
34 133069255 1 7.19536e-05 3.70471 2.29539 0 
32 1855789220 1 9.777e-06 2.99719 2.77348 0 
30 776536522 1 3.09594e-05 2.56028 3.2566 0 
30 415363879 1 1.14334e-05 2.49421 3.36072 0 
38 659084079 1 9.53338e-05 4.93643 2.00592 0 
34 1370956455 1 7.82184e-05 3.64701 2.32711 0 
34 312192108 2 5.98703e-05 3.67285 2.31291 0 
34 1681734988 1 2.29713e-05 3.53067 2.39107 0 
31 785421004 2 9.51018e-05 2.61224 3.18915 0 
33 493127419 1 5.86103e-06 3.13295 2.6556 0 
29 1792046758 1 7.84118e-05 2.3046 3.69602 0 
32 221228514 1 5.91915e-06 2.88166 2.88197 0 
31 1523799471 1 3.86385e-05 2.65831 3.13346 0 
31 1671647102 2 3.11306e-05 2.67829 3.10931 0 
26 1647766171 1 9.53166e-05 2.00243 4.96145 0 
32 1445490941 2 3.66586e-05 2.97129 2.7978 0 
33 1137856880 1 4.89143e-05 3.15977 2.63612 0 
30 1034849071 1 3.54857e-06 2.55843 3.25953 0 
36 1212134929 2 9.33353e-05 4.31932 2.08357 0 
34 640574713 2 4.60283e-05 3.71676 2.28876 0 
36 1660546469 1 9.93243e-05 4.25499 2.10009 0 
32 1539722148 1 5.31782e-05 2.89257 2.87172 0 
29 464878414 1 6.77599e-05 2.29718 3.71178 0 
30 1793009411 2 8.4992e-05 2.41761 3.48141 0 
28 602263940 1 9.47761e-05 2.14851 4.08692 0 
37 1908181431 1 6.69594e-05 4.77021 2.01115 0 
27 1071562501 1 4.03698e-05 2.0747 4.35641 0 
27 1188277472 1 3.30968e-05 2.07197 4.37073 0 
34 643537246 2 7.12811e-05 3.55767 2.37622 0 
34 1448748287 1 1.72156e-05 3.5972 2.35449 0 
32 918386156 2 3.42066e-05 2.91803 2.84781 0 
35 286415488 1 2.6191e-05 3.88045 2.22305 0 
31 231798246 2 1.47623e-05 2.73365 3.04239 0 
28 1072274832 1 9.45433e-05 2.13517 4.12798 0 
38 268964185 1 7.93434e-05 4.91107 2.00592 0 
34 2139137484 1 7.03262e-05 3.567 2.3711 0 
36 1706820687 2 3.01721e-05 4.40172 2.06242 0 
32 122633161 2 6.67622e-05 2.91856 2.84732 0 
32 788031886 2 1.87841e-05 2.87474 2.88847 0 
26 785192539 1 2.84044e-05 2.00985 4.84337 0 
26 1647336889 1 1.08952e-05 2.01579 4.74909 0 
37 1744209520 2 2.21975e-05 4.49777 2.04557 0 
26 1654331220 2 8.03432e-05 2.0212 4.66304 0 
28 1415305333 2 5.09241e-05 2.20544 3.91171 0 
27 2028975496 2 8.78081e-05 2.02935 4.59415 0 
26 1413821832 2 4.51559e-05 2.00687 4.89073 0 
26 428697015 2 6.60178e-05 2.00771 4.87744 0 
15 185970984 2 7.10852e-05 4.09805 7.85962 0 
17 1571074514 1 4.55149e-05 3.60162 7.64794 0 
17 377140914 2 9.23044e-05 3.6849 7.69372 0 
14 1914959574 2 8.28676e-05 4.66177 7.97515 0 
18 6756801 1 4.11703e-05 3.22153 7.40875 0 
20 686376842 1 9.35924e-05 2.76038 6.98992 0 
24 1846135723 2 6.40423e-05 2.05287 5.52915 0 
19 541577676 2 5.35227e-06 3.00638 7.23515 0 
20 452918062 1 5.99818e-05 2.77752 7.01064 0 
22 1206629548 1 7.60668e-06 2.32237 6.34175 0 
17 2046221063 1 9.67572e-05 3.6204 7.65826 0 
23 939007166 2 6.28937e-05 2.19398 6.05302 0 
19 1568664895 1 2.32003e-05 3.03758 7.26445 0 
20 276637999 1 1.11961e-05 2.57493 6.76575 0 
20 782141607 1 3.55207e-05 2.69907 6.91581 0 
22 1529832200 2 6.56418e-05 2.31435 6.32471 0 
16 950733644 2 3.03428e-05 3.87131 7.77333 0 
22 1516823751 2 5.71558e-05 2.28295 6.25798 0 
22 1376827228 2 7.67362e-05 2.23258 6.15094 0 
25 1574883849 2 8.24088e-05 2.02273 5.36124 0 
17 1392456999 2 9.15004e-05 3.71301 7.70918 0 
22 1237071681 1 1.20651e-05 2.23712 6.16058 0 
22 153062850 2 1.33294e-05 2.31925 6.33512 0 
19 340739284 1 7.92003e-05 2.97987 7.21026 0 
19 1185768166 1 2.9547e-05 2.82617 7.06592 0 
23 166660600 2 4.05723e-05 2.12733 5.84787 0 
24 1362964695 1 7.82938e-05 2.07439 5.64194 0 
17 367674270 1 2.17834e-05 3.57974 7.63591 0 
23 1766523522 1 8.40994e-05 2.13793 5.8805 0 
24 2005037277 1 2.20268e-05 2.03884 5.4556 0 
16 861450141 1 9.82961e-05 3.8792 7.77646 0 
23 682934168 2 7.75708e-05 2.12703 5.84695 0 
23 368366934 2 9.08983e-05 2.19141 6.0451 0 
18 1751615407 2 5.17292e-05 3.14512 7.35324 0 
23 1146758243 1 4.54421e-05 2.16558 5.96561 0 
24 615778351 2 5.67385e-06 2.02986 5.40853 0 
15 2034550031 1 4.51146e-05 4.24726 7.89793 0 
15 1518424090 1 4.31228e-05 4.3896 7.93447 0 
15 1075672117 2 4.9281e-05 4.1982 7.88533 0 
20 1503683803 1 2.79628e-05 2.73975 6.96498 0 
18 986661099 2 9.88141e-05 3.10311 7.32271 0 
20 1300405539 2 9.82372e-06 2.77524 7.00788 0 
23 917217096 1 4.20846e-05 2.17246 5.98677 0 
20 1881000560 2 3.91525e-06 2.8048 7.04361 0 
21 667193533 2 3.4027e-05 2.37206 6.4468 0 
25 679988245 2 9.18611e-05 2.00834 5.1326 0 
23 1690220065 1 3.95662e-05 2.11207 5.80091 0 
18 442940597 1 2.33943e-05 3.21419 7.40342 0 
23 2084010616 1 1.03653e-05 2.16135 5.95258 0 
20 2053715680 1 6.92051e-05 2.74304 6.96896 0 
23 123922390 2 4.54338e-05 2.1678 5.97244 0 
23 519347009 1 7.74536e-05 2.20008 6.07179 0 
23 488231689 2 7.43993e-05 2.12741 5.84812 0 
19 1799397535 1 1.0384e-05 3.01687 7.245 0 
25 314638532 1 3.56264e-05 2.02119 5.33683 0 
21 583819957 2 3.82604e-05 2.43875 6.5519 0 
21 354584665 1 5.50521e-05 2.48092 6.61834 0 
23 1207076879 2 3.05043e-05 2.12854 5.8516 0 
24 1224969430 1 9.23732e-05 2.0927 5.73795 0 
17 1831274737 1 5.12393e-05 3.55188 7.62059 0 
24 2039890711 2 9.914e-05 2.06753 5.60598 0 
25 164579474 1 8.24117e-05 2.01274 5.20242 0 
14 302336457 1 3.18689e-05 4.71111 7.98138 0 
24 1723039542 1 4.54098e-06 2.0374 5.44805 0 
22 427433996 2 7.27918e-05 2.29733 6.28853 0 
22 269132881 1 4.42396e-05 2.27203 6.23477 0 
24 739030448 1 4.66346e-05 2.07839 5.66293 0 
25 1963248383 2 5.50574e-05 2.00945 5.15019 0 
25 789058826 2 2.01475e-05 2.00328 5.05219 0 
25 1711400501 2 2.67196e-05 2.00099 5.01576 0 
41 476085800 2 3.6744e-06 6.0646 2.20129 0 
39 519099331 2 9.50704e-06 5.53471 2.04967 0 
39 6600840 1 9.38904e-05 5.42569 2.0359 0 
38 2132590620 2 1.40102e-05 5.05482 2.00592 0 
40 279269120 1 3.71889e-05 5.89504 2.13861 0 
39 1680221433 1 1.52202e-06 5.44673 2.03856 0 
39 1056439275 2 1.64947e-05 5.46398 2.04074 0 
10 56559131 1 2.63502e-05 6.03795 7.80926 0 
12 1485502028 1 1.57555e-05 5.36846 7.97133 0 
10 1538105949 2 3.88159e-05 6.16877 7.75746 0 
12 1598552789 1 7.21378e-05 5.30425 7.97944 0 
11 461646507 2 7.06158e-05 5.92153 7.85459 0 
10 839681514 2 4.7104e-05 5.92848 7.8526 0 
9 1775474728 2 2.64245e-05 6.39426 7.6502 0 
12 1665422672 2 5.87582e-05 5.25433 7.98575 0 
8 1313003623 1 6.92875e-05 6.78925 7.40092 0 
13 115193473 2 5.5521e-05 5.04649 7.99408 0 
ITEM: TIMESTEP
400
ITEM: NUMBER OF TALLIES
197
ITEM: BOX BOUNDS oo rr pp
0 10
0 10
-0.5 0.5
ITEM: TALLIES c_1[1] c_1[2] c_1[3] c_1[4] c_1[5] c_1[6] c_1[7] 
28 421238203 2 3.14502e-05 2.11703 4.18382 0 
29 1952609788 2 1.03813e-06 2.29404 3.71845 0 
36 1816852668 2 3.03323e-05 4.35482 2.07446 0 
26 1986608551 2 3.78736e-05 2.01738 4.72368 0 
26 209502925 1 2.28696e-05 2.0159 4.74731 0 
27 1933336122 1 6.49455e-05 2.07849 4.33654 0 
30 1469100804 1 1.94715e-05 2.46567 3.40569 0 
30 751536929 1 2.06183e-05 2.41757 3.48148 0 
26 651896649 1 9.10865e-05 2.01037 4.83519 0 
35 630727844 2 1.33395e-05 3.85394 2.23354 0 
33 1504521693 1 8.90569e-05 3.10753 2.67408 0 
31 1378659403 2 4.82882e-05 2.65709 3.13493 0 
37 175442005 1 4.93494e-05 4.7295 2.0163 0 
26 1394998638 1 3.25302e-05 2.02237 4.64438 0 
27 1939990592 1 7.64781e-05 2.0731 4.36481 0 
32 51301449 2 6.56507e-05 3.06149 2.7131 0 
30 1888296041 1 9.05205e-05 2.54611 3.27893 0 
31 1742568387 1 7.36603e-05 2.68548 3.10062 0 
28 189707762 1 4.14053e-06 2.15731 4.05985 0 
31 1344758468 2 7.1958e-05 2.67402 3.11447 0 
29 1227287307 1 9.99454e-05 2.36021 3.57784 0 
29 1828852588 1 4.23676e-06 2.2122 3.89237 0 
36 2068976770 1 1.92115e-06 4.09788 2.14043 0 
28 328593806 1 4.28291e-05 2.09476 4.25237 0 
35 57669515 1 3.6556e-05 3.90178 2.2146 0 
32 1795023003 2 1.87783e-05 2.98531 2.78463 0 
27 646521220 2 7.05789e-05 2.09235 4.26388 0 
27 1825048381 2 8.39645e-05 2.03784 4.54965 0 
36 23411297 1 5.6133e-05 4.3378 2.07883 0 
29 1298065637 1 7.49325e-05 2.25271 3.80628 0 
31 508846793 2 6.02343e-05 2.65266 3.1403 0 
30 1374678379 2 5.22879e-05 2.48589 3.37383 0 
37 229182499 2 2.12139e-05 4.65374 2.02587 0 
34 895749462 1 3.15138e-05 3.58471 2.36136 0 
34 1850518364 1 1.71544e-05 3.50254 2.40653 0 
29 462092406 2 5.58839e-05 2.2898 3.72747 0 
34 1528477756 1 8.93228e-05 3.6402 2.33085 0 
29 1539682245 2 9.37932e-05 2.3385 3.62397 0 
28 300677440 2 4.29455e-05 2.18454 3.97604 0 
35 161233317 1 9.77163e-05 4.05824 2.15266 0 
28 1127895240 2 9.15903e-05 2.1303 4.14298 0 
35 998174296 2 2.6193e-06 3.76994 2.2668 0 
28 736649088 1 6.42527e-07 2.20405 3.91602 0 
35 1636054167 2 1.07212e-05 3.73009 2.28258 0 
31 1351378110 1 1.27902e-05 2.66121 3.12995 0 
37 623914597 1 2.79035e-05 4.67736 2.02288 0 
31 1659899649 1 4.09613e-05 2.68734 3.09837 0 
31 1934671633 2 1.5158e-05 2.70403 3.07819 0 
35 2074320564 1 2.55007e-08 3.78185 2.26209 0 
31 1279556628 1 6.59277e-05 2.68134 3.10562 0 
37 1114793659 2 7.94828e-05 4.45012 2.05159 0 
26 544848439 1 3.25049e-05 2.02209 4.64884 0 
36 1972454323 1 5.45793e-05 4.12051 2.13462 0 
33 1066809546 1 5.23486e-05 3.36059 2.49022 0 
31 323734544 1 5.52187e-05 2.70265 3.07986 0 
30 1189551721 1 5.34362e-05 2.38516 3.53255 0 
35 861663021 1 9.91113e-05 3.94866 2.19604 0 
37 2043908103 2 7.55096e-05 4.54461 2.03965 0 
36 1927362142 1 8.89566e-05 4.09025 2.14239 0 
30 1183796857 2 3.20632e-05 2.44088 3.44476 0 
35 1671868671 1 9.86635e-05 3.86393 2.22959 0 
26 1695066064 2 4.80311e-05 2.00624 4.90079 0 
27 1952842562 2 6.9627e-05 2.02625 4.61041 0 
32 982731893 1 9.38133e-05 2.87527 2.88798 0 
31 733640227 1 9.8412e-05 2.68393 3.1025 0 
37 680630723 2 6.85586e-05 4.63156 2.02867 0 
32 1773592190 1 1.44096e-05 2.91823 2.84763 0 
31 1873159786 1 2.40432e-05 2.72251 3.05585 0 
32 1679221444 2 2.33841e-05 2.90671 2.85845 0 
29 1659089552 2 2.95289e-05 2.23304 3.84809 0 
34 1678911582 1 1.10076e-05 3.69894 2.29856 0 
35 923209765 1 8.52701e-05 3.81615 2.24851 0 
31 380224095 1 5.10899e-05 2.61566 3.18502 0 
26 487509569 1 4.43544e-05 2.01061 4.83131 0 
28 457621777 2 5.42231e-05 2.17014 4.02036 0 
35 1415144090 1 5.25756e-05 3.95852 2.19214 0 
36 393857752 1 5.28636e-05 4.39342 2.06455 0 
26 420628861 1 3.80583e-05 2.02252 4.64201 0 
34 1250106323 1 2.41779e-06 3.67209 2.31332 0 
37 1019125230 2 6.63411e-05 4.44097 2.05274 0 
29 56786786 1 7.33191e-05 2.21966 3.87651 0 
35 1090906220 1 3.12846e-05 3.84053 2.23885 0 
30 136423644 2 4.00279e-05 2.42884 3.46373 0 
26 1090913130 2 6.02897e-05 2.00345 4.9451 0 
17 1220651063 2 8.99282e-05 3.55027 7.61971 0 
18 39379431 2 5.22356e-05 3.34172 7.49608 0 
24 391895705 2 6.46556e-05 2.08275 5.68578 0 
19 1809727653 1 4.11232e-05 3.08008 7.30436 0 
17 1036754067 2 4.75689e-05 3.60424 7.64938 0 
17 1072355874 2 9.5615e-05 3.6577 7.67877 0 
18 1039434505 2 8.86411e-05 3.31983 7.48017 0 
20 448056955 2 6.75388e-05 2.70787 6.92644 0 
20 599215944 2 3.32296e-05 2.69802 6.91454 0 
15 801984176 1 5.15345e-05 4.40615 7.93872 0 
23 1280098223 2 8.32257e-05 2.19977 6.07083 0 
14 1069227482 2 5.05223e-05 4.53356 7.95895 0 
22 865975490 1 7.89322e-05 2.33777 6.37448 0 
14 649587009 2 7.27689e-05 4.76531 7.98823 0 
18 2053781174 1 2.72943e-06 3.33602 7.49194 0 
24 1927638060 1 7.62608e-06 2.06509 5.59319 0 
15 710097315 1 2.74905e-06 4.07631 7.85403 0 
19 1366929528 2 1.00712e-05 3.02849 7.25592 0 
17 756111687 2 6.0149e-05 3.63149 7.66436 0 
19 301725408 2 6.00506e-05 3.0311 7.25836 0 
15 1510777365 1 1.50266e-05 4.27199 7.90428 0 
19 1840228462 2 8.39968e-05 2.85907 7.09682 0 
15 1041221531 2 6.87867e-05 4.25638 7.90027 0 
22 1964386502 1 7.2232e-05 2.32687 6.3513 0 
14 1682491126 2 4.37103e-05 4.48637 7.95299 0 
19 1778572441 1 8.15885e-05 3.03031 7.25762 0 
17 36732793 1 8.45355e-05 3.40412 7.53936 0 
24 1647517565 2 1.12261e-05 2.09325 5.74082 0 
16 701235521 1 6.73839e-05 3.76839 7.73259 0 
22 755165545 1 2.9687e-05 2.24203 6.17102 0 
22 1828298251 1 1.22852e-05 2.29191 6.27701 0 
17 952160868 2 5.4627e-05 3.40699 7.54094 0 
22 1370824210 1 2.37336e-05 2.35969 6.42105 0 
20 1282268322 2 5.22805e-05 2.68041 6.89326 0 
24 622234773 1 5.32943e-05 2.05771 5.55454 0 
15 1499132315 1 5.70563e-05 4.42133 7.94262 0 
17 1172276896 2 6.92141e-05 3.69509 7.69933 0 
24 2064696090 2 3.79186e-05 2.03464 5.43359 0 
16 1529992084 2 4.054e-05 3.86319 7.77012 0 
23 1733571730 2 4.63088e-05 2.19115 6.0443 0 
15 713512917 2 4.88421e-05 4.27645 7.90542 0 
17 695660244 2 6.99947e-05 3.42469 7.55067 0 
18 357109354 1 8.25006e-05 3.37012 7.51671 0 
15 422748743 1 3.66082e-05 4.35656 7.92599 0 
15 1888624945 1 7.4436e-05 4.2385 7.89567 0 
15 53983465 2 5.44892e-05 4.17632 7.87971 0 
22 2040526875 1 7.363e-05 2.28023 6.2522 0 
23 287321739 1 9.97075e-05 2.17442 5.99282 0 
18 248392409 1 1.18827e-05 3.34506 7.4985 0 
17 61462888 1 8.78796e-05 3.43658 7.5572 0 
21 122601305 2 3.40584e-05 2.54325 6.71656 0 
22 1611503805 1 4.16483e-05 2.32464 6.34657 0 
24 877321102 1 5.16409e-06 2.08622 5.70398 0 
14 1895366266 2 6.2333e-05 4.545 7.9604 0 
15 290228029 1 7.23797e-05 4.30887 7.91374 0 
20 1973720813 1 7.56919e-05 2.7361 6.96057 0 
22 1517535657 1 1.47667e-05 2.24012 6.16696 0 
21 1307748916 1 1.22065e-05 2.45661 6.58004 0 
19 1401534904 2 8.54693e-05 2.86119 7.09881 0 
17 1195272684 2 9.89638e-05 3.57683 7.63431 0 
24 2108090277 1 9.76352e-05 2.06027 5.56792 0 
20 798623810 1 7.08614e-05 2.6133 6.81213 0 
14 1447706388 2 8.75325e-05 4.68053 7.97752 0 
15 123838417 2 5.98795e-05 4.33828 7.92129 0 
21 196209731 2 5.84529e-05 2.45548 6.57826 0 
25 1527762384 2 8.83471e-05 2.01165 5.18516 0 
24 873999887 2 2.99193e-06 2.0481 5.50415 0 
21 1237905381 1 1.50036e-05 2.41476 6.51409 0 
22 341811385 1 1.92827e-05 2.35743 6.41626 0 
22 1336500314 1 6.47339e-05 2.2524 6.19304 0 
24 446008894 1 6.09333e-05 2.062 5.57701 0 
16 1838961227 2 1.10089e-05 3.85422 7.76657 0 
14 694772306 1 7.11588e-05 4.76265 7.98789 0 
23 1603429398 2 4.89339e-05 2.20971 6.10143 0 
17 1723439982 1 8.06276e-05 3.66266 7.68149 0 
13 962464907 2 2.49826e-05 4.83462 7.99408 0 
16 2118707557 2 2.46251e-05 3.94291 7.80168 0 
14 1535489232 1 6.01997e-05 4.45214 7.94867 0 
15 1894261358 2 3.8961e-05 4.23696 7.89528 0 
20 1763956371 2 2.90461e-05 2.61672 6.81627 0 
25 1358116066 1 5.89414e-05 2.00384 5.06105 0 
24 998121085 1 9.12956e-05 2.02381 5.37679 0 