ITEM: TIMESTEP
0
ITEM: NUMBER OF TALLIES
0
ITEM: BOX BOUNDS rr rr rr
0 0.0001
0 0.0001
0 0.0001
ITEM: TALLIES c_1[1] c_1[2] c_1[3] c_1[4] c_1[5] c_1[6] c_1[7] c_1[8] c_1[9] c_1[10] c_1[11] c_1[12] c_1[13] c_1[14] c_1[15] 
ITEM: TIMESTEP
500
ITEM: NUMBER OF TALLIES
709
ITEM: BOX BOUNDS rr rr rr
0 0.0001
0 0.0001
0 0.0001
ITEM: TALLIES c_1[1] c_1[2] c_1[3] c_1[4] c_1[5] c_1[6] c_1[7] c_1[8] c_1[9] c_1[10] c_1[11] c_1[12] c_1[13] c_1[14] c_1[15] 
5 696542237 1866758472 262.456 223.774 680.517 -243.631 -453.055 -285.556 -88.0385 -520.853 684.691 106.864 291.571 -289.731 
13 265111874 727131125 68.161 -67.7699 -123.867 -169.568 592.233 -343.081 138.47 86.6735 28.129 -239.876 437.789 -495.077 
21 304947060 940263197 0.844023 46.4163 159.062 210.388 227.042 -252.737 246.923 256.869 117.865 -35.6917 16.5898 -211.54 
21 1705017737 616358275 -86.7841 -96.4578 257.397 301.202 -120.433 -50.2957 -104.524 -228.614 150.18 318.942 11.7233 56.921 
33 72231325 270051018 51.3424 291.138 307.449 128.227 -147.653 164.594 126.951 283.02 329.267 52.6185 -139.535 142.776 
41 1516776373 1498279841 -377.962 269.183 -362.348 8.58576 -279.892 30.8373 -280.301 -351.44 -15.8976 -89.0754 340.731 -315.613 
45 1618292991 154662609 226.837 -490.698 271.364 -668.393 125.823 -458.472 -103.775 -585.044 -596.313 -337.782 220.169 409.205 
101 449436355 174898399 236.342 -150.388 -51.9137 124.442 21.1656 -329.317 213.948 79.4202 -101.986 146.836 -208.642 -279.245 
113 1616867294 1972224233 -66.2655 19.9657 -107.966 64.2207 -513.704 454.555 -232.655 63.1059 103.818 230.61 -556.845 242.771 
113 1972224233 411858303 230.61 -556.845 242.771 176.194 -12.8742 264.388 378.856 -486.866 310.521 27.9482 -82.853 196.638 
113 1581790332 2075741129 238.066 121.724 178.8 -316.696 -284.172 -397.302 38.6383 -304.314 271.873 -117.268 141.867 -490.375 
141 108355094 453432150 -428.812 91.0091 22.5901 43.9123 -86.5884 -153.719 -369.656 -198.093 -66.1531 -15.2441 202.513 -64.9754 
145 767704345 1992965590 175.383 359.978 104.442 392.401 79.3063 181.765 378.98 336.905 243.954 188.804 102.38 42.2521 
201 609078389 1623521463 62.7583 -278.732 501.429 462.877 152.588 378.701 414.55 -318.859 397.065 111.085 192.714 483.066 
205 857056237 1961768084 -57.5545 -286.932 13.8602 20.1185 88.0579 20.195 -163.893 14.6954 -33.6746 126.457 -213.569 67.7298 
213 743883533 1142312939 -69.3428 45.8823 -181.505 -135.419 -468.166 181.746 -371.813 -131.988 -145.761 167.052 -290.295 146.002 
213 1204143172 81505755 46.6814 6.811 -496.414 -506.819 -105.515 -34.3603 25.0265 32.7168 -512.995 -485.164 -131.42 -17.7797 
221 1553214085 1264225061 -152.823 -211.158 -122.847 151.623 -398.97 -8.22022 116.661 -158.358 -67.1016 -117.86 -451.769 -63.9656 
225 1076757397 803377454 298.436 108.075 94.3634 175.342 -433.807 -423.515 609.356 -189.575 -233.869 -135.579 -136.157 -95.2833 
225 1229301568 1623304086 154.045 -361.847 302.936 -102.589 136.46 41.9622 55.3777 -115.562 -135.256 -3.92137 -109.825 480.154 
225 1626687137 145286008 235.441 -553.855 -67.4911 -382.256 20.8466 301.659 -65.8955 135.826 340.914 -80.9194 -668.835 -106.745 
233 1029471914 870053622 229.795 -7.21562 -443.773 -5.97227 -81.0911 -142.516 24.4234 128.792 -273.51 199.399 -217.099 -312.78 
245 1860211647 515076031 245.963 350.354 -213.418 306.607 -100.35 -59.0679 496.632 182.94 -60.4204 55.9376 67.0632 -212.065 
301 1903827738 100511891 -317.14 -236.89 10.5613 -450.517 179.322 -558.134 -613.69 -207.315 -64.2644 -153.967 149.747 -483.308 
301 1903827738 1319534727 -613.69 -207.315 -64.2644 426.444 155.61 186.093 276.772 183.553 -310.602 -464.018 -235.259 432.431 
405 2680334 1978416938 320.067 340.643 161.183 -92.5805 -167.129 -152.455 131.394 434.141 -98.7496 96.0926 -260.627 107.478 
405 635625784 727979003 17.2647 -35.2017 -15.989 -243.182 707.651 124.771 -7.58411 197.224 -305.393 -218.333 475.226 414.174 
413 1662241456 1331066531 -140.913 329.319 21.3058 332.363 412.98 230.189 209.946 238.867 -69.4712 -18.4957 503.433 320.966 
425 364099482 1671534005 -28.0835 62.9453 170.069 113.412 126.865 -60.0544 3.3478 -3.65932 144.479 81.981 193.47 -34.4642 
433 776931664 437319885 -547.981 -46.6101 -91.4603 269.082 141.455 -175.553 -466.4 -29.9532 -387.719 187.502 124.798 120.706 
433 315760480 1255382701 314.945 -245.435 234.63 -501.479 -18.3115 -292.139 345.676 -261.697 169.689 -532.209 -2.04908 -227.198 
441 448835949 136068023 -18.3695 -196.405 -357.385 142.426 86.6237 -89.1283 206.424 -189.212 -148.502 -82.3672 79.4308 -298.011 
445 832285728 1763776102 -429.159 -88.7126 -80.2799 -247.165 166.478 117.75 -358.919 169.943 148.186 -317.405 -92.1776 -110.715 
445 1466570518 832285728 -73.3185 225.462 -78.8822 -358.919 169.943 148.186 -106.826 66.474 -35.2529 -325.411 328.931 104.556 
505 1929301099 73222603 -458.66 36.9871 -232.649 282.485 -132.167 430.854 -241.681 146.32 -340.607 65.5066 -241.5 538.812 
521 1736018719 187759737 -224.113 -215.633 132.254 122.51 -255.416 -238.444 -222.547 -167.937 -228.372 120.944 -303.113 122.183 
525 611043382 1612425501 -164.412 -177.954 -159.368 -389.759 361.864 -330.035 -165.173 364.689 -167.759 -388.998 -180.779 -321.644 
525 1608519112 1852422774 -26.3625 192.317 -238.393 392.396 20.0556 118.138 -100.733 71.1393 -96.1077 466.767 141.233 -24.1463 
545 1769144614 1669295964 432.414 580.439 137.007 -68.4933 175.343 -180.953 218.405 734.184 5.49312 145.516 21.5974 -49.439 
605 1500701747 317104882 -198.034 117.455 48.4218 -292.758 417.699 -262.388 -264.926 138.789 71.7984 -225.866 396.364 -285.765 
633 365519856 164036158 47.5711 -90.5456 -156.856 307.448 117.917 -186.189 138.283 -115.164 -72.4155 216.736 142.536 -270.629 
641 1706529531 1131230289 5.22972 85.6725 616.199 29.3257 -287.69 313.171 -126.412 -99.6865 657.825 160.967 -102.331 271.545 
701 2118653288 1480576544 -170.5 -331.485 -248.793 -301.854 188.565 -493.485 -524.659 -17.2564 -398.25 52.3045 -125.663 -344.028 
705 1911627676 1584389228 -133.333 344.418 610.808 356.689 -270.237 333.503 -294.182 131.681 466.157 517.537 -57.4994 478.154 
713 521720096 2075661801 -38.176 -36.5691 183.8 -40.0585 -266.414 207.445 67.4605 -195.977 198.791 -145.695 -107.006 192.453 
721 2092040463 2127763004 249.26 -69.2194 174.368 -138.654 -226.418 -61.226 10.2222 69.8809 147.39 100.383 -365.518 -34.2477 
805 67877944 1696219973 -65.9679 -89.9764 -16.9249 52.4311 -28.7026 -229.122 4.43143 -150.384 -208.38 -17.9682 31.7046 -37.6674 
821 563018165 1256098597 -331.942 36.0414 140.464 -54.6605 417.699 -82.8408 -413.924 134.508 -75.5818 27.3212 319.233 133.205 
825 562026107 397527868 -67.5347 -22.2211 -510.395 -133.329 -177.59 -223.643 -67.3519 -175.356 -511.541 -133.512 -24.4553 -222.496 
841 36015345 1931783468 -494.486 -107.351 -82.5287 111.803 -68.8276 -177.19 -354.661 -64.9999 129.566 -28.0224 -111.179 -389.285 
845 1523045243 1561344334 93.933 546.417 -17.158 313.865 430.018 -254.375 279.746 548.505 -277.753 128.052 427.93 6.22055 
913 1044662358 2100792999 -142.851 95.4217 -31.1738 234.279 462.485 127.985 -13.4597 404.081 -189.112 104.888 153.825 285.923 
925 1282548536 68794 327.951 -135.349 281.926 178.146 90.2861 73.5237 419.512 -21.4649 139.191 86.5851 -23.5983 216.259 
933 2014725600 1679472167 -446.464 -139.616 -225.605 479.524 190.781 212.195 -117.867 522.125 -164.676 150.926 -470.96 151.267 
941 1726436733 2143788970 -219.268 -526.784 -37.9498 -156.208 367.553 -201.921 84.7178 91.8337 -442.501 -460.194 -251.064 202.63 
2 41310189 1158114476 199.381 -176.937 -139.677 611.53 -150.441 17.5515 276.073 -342.554 -70.5421 534.838 15.1758 -51.5833 
34 375254122 1196434152 33.0477 188.853 -1.07795 -141.23 563.498 86.3578 -162.451 544.196 -25.3421 54.2692 208.156 110.622 
102 2129708473 1608005526 -101.687 170.737 -197.043 -214.453 238.232 176.274 25.1456 279.255 -11.2586 -341.285 129.714 -9.51081 
114 438396221 985148757 356.85 11.573 432.274 -23.5847 -635.099 -257.472 -163.851 11.0306 302.461 497.117 -634.556 -127.66 
122 1928287845 382011476 61.1017 -255.467 -404.709 -320.175 271.717 -442.994 -384.244 119.975 -254.135 125.171 -103.724 -593.568 
134 838763733 1087580721 -270.115 165.22 -95.888 -58.819 -367.382 -6.44723 -265.943 -367.765 -102.737 -62.9909 165.603 0.402056 
142 1415790665 2106253889 -260.08 237.111 101.889 45.657 114.572 -14.3415 -185.911 70.037 -70.7332 -28.5116 281.646 158.281 
202 1822835747 750534455 -138.476 -168.7 -96.4452 -745.459 218.218 70.7807 -149.599 27.8236 -238.743 -734.336 21.6942 213.079 
202 918489334 303450760 -235.429 -126.753 52.5253 -216.446 222.783 -143.026 -337.353 99.6487 -203.725 -114.522 -3.61852 113.225 
214 885240588 1569151646 218.108 172.847 135.284 -121.827 192.947 129.727 186.296 281.902 142.934 -90.0147 83.8923 122.077 
214 830854984 467880225 206.663 -87.2362 141.868 57.4542 -88.5588 -68.1847 239.277 -26.4979 73.3249 24.8397 -149.297 0.358789 
222 2106428838 397912899 -33.529 522.598 83.876 112.085 172.702 -199.433 124.465 251.286 140.793 -45.9092 444.015 -256.35 
242 911094605 610957832 392.932 -2.26176 -174.293 300.239 -328.483 296.883 264.202 112.717 49.7247 428.968 -443.462 72.8653 
322 892782213 137269014 187.611 -50.9915 354.65 521.726 -28.9194 405.263 450.643 99.5412 380.053 258.694 -179.452 379.86 
334 886828673 153245949 -153.468 -22.792 -24.0277 -140.378 230.624 12.1372 -34.5558 56.7391 -45.6037 -259.289 151.093 33.7131 
402 794389419 1479855733 16.4711 -457.809 355.841 281.277 -58.2117 -369.484 185.291 175.051 -17.1089 112.457 -691.072 3.46564 
414 1260832943 575649572 -436.61 -65.0433 -215.218 -231.836 211.664 308.02 -359.756 -130.441 -190.037 -308.69 277.062 282.839 
422 1767792934 713983678 -15.3268 78.5918 703.28 85.9038 266.175 -262.538 91.7677 621.078 20.2636 -21.1906 -276.312 420.478 
442 104346236 1661793474 143.601 487.384 16.3427 -193.165 -98.3916 64.5709 -229.258 402.481 -131.733 179.694 -13.4884 212.647 
442 85669266 654335529 -29.0786 -92.1944 -257.643 332.888 149.499 73.4311 252.438 258.964 15.6483 51.3717 -201.659 -199.86 
502 701771037 802406970 -456.458 39.0284 132.353 -201.31 -62.3725 23.1768 -207.698 -29.4199 -4.84515 -450.07 6.07587 160.375 
514 1722040088 170775602 -83.4715 51.8606 225.216 -97.932 247.513 -129.29 -214.155 8.72558 -29.0439 32.7518 290.648 124.969 
522 911628712 1911527247 -108.822 -8.07501 200.434 184.23 -232.501 190.149 0.50029 -301.035 189.436 74.908 60.4594 201.147 
522 72782784 1654440894 155.54 -63.8081 532.025 355.354 -85.9062 -136.751 468.481 -330.108 304.327 42.4127 180.393 90.9478 
534 716054947 1448749694 189.184 -199.804 237.375 -59.3305 -12.8524 -340.78 9.15388 -77.0408 270.439 120.699 -135.616 -373.844 
542 545549651 387028036 -299.241 148.227 -7.59975 -9.97085 -103.884 118.968 -261.006 121.789 -84.2076 -48.2064 -77.446 195.576 
634 1370582193 1998632568 225.552 191.851 -170.07 -142.037 -27.0643 457.747 342.003 170.627 -71.4915 -258.489 -5.83959 359.169 
642 250539392 368612984 218.005 189.116 122.553 365.887 150.368 -179.047 378.252 36.5149 -86.4281 205.64 302.969 29.9341 
642 1829059923 1514487813 356.383 435.867 -289.758 32.1399 -116.95 -53.3169 -144.322 195.318 -144.395 532.844 123.598 -198.679 
642 1427657792 345154665 -288.431 266.181 287.166 16.4131 -616.271 -372.618 -461.023 264.317 124.811 189.005 -614.407 -210.263 
702 911742118 998470333 -48.0198 49.5654 -503.666 79.9081 209.813 -208.29 17.3671 306.161 -321.649 14.5212 -46.7834 -390.307 
714 25609236 551545416 -385.115 340.15 133.997 177.562 -183.138 -125.79 -444.058 298.976 -5.01859 236.505 -141.963 13.2257 
714 1110490819 551545416 135.04 729.241 136.333 236.505 -141.963 13.2257 -30.2355 135.699 -278.077 401.78 451.578 427.635 
722 602369811 445892971 -421.997 2.8655 -108.749 353.362 8.65435 79.2582 -217.511 -190.872 -309.561 148.876 202.392 280.071 
734 1420294354 515972681 124.663 28.5855 215.678 227.336 238.349 34.8071 313.468 118.169 177.035 38.5302 148.765 73.4508 
814 264142137 546679193 -470.056 -83.2812 66.9463 -82.2054 259.195 380.648 -555.149 21.9664 320.367 2.88774 153.948 127.227 
822 1625636077 2025047330 319.666 -4.50483 -130.483 200.008 137.73 -235.24 179.556 117.207 -134.118 340.117 16.018 -231.604 
842 628648263 889567050 320.064 396.282 111.488 231.479 253.169 -83.8983 346.986 400.31 -62.6364 204.558 249.142 90.2258 
902 1355353624 909417089 -29.8634 15.2116 -5.99616 82.3081 474.252 193.262 -130.966 82.3648 -27.5272 183.411 407.099 214.793 
914 1982191658 1280457435 -92.056 -11.8379 -165.353 353.575 -95.4447 38.9156 185.894 188.292 -79.1606 75.6244 -295.574 -47.2771 
922 2059787149 1004020189 138.139 -231.635 145.334 77.587 45.2016 -402.14 -154.212 -198.358 -4.83052 369.939 11.9239 -251.976 
942 1975187988 1449588291 198.141 67.4026 -348.589 -91.402 -151.71 268.254 -56.7403 73.8823 -360.319 163.479 -158.19 279.983 
3 1569622879 1124106145 -188.287 161.273 -297.536 -392.354 140.283 3.84482 -191.382 5.15156 -99.5963 -389.26 296.405 -194.095 
3 1053571104 375750595 -423.422 178.361 388.552 626.984 -91.3291 -398.437 512.2 -382.948 -318.86 -308.637 469.979 308.975 
11 113312867 1394213775 -31.0764 -33.3736 113.07 87.0256 -522.352 -19.4326 -223.537 -265.563 -18.3095 279.486 -290.163 111.947 
23 1997459009 1724878426 172.303 -53.0292 276.398 -29.3199 76.3044 -102.429 -111.763 140.526 92.2744 254.746 -117.25 81.6938 
31 1145980098 517174138 96.3757 198.643 -90.8765 -9.87144 -426.955 606.9 -218.855 12.1372 -113.119 305.359 -240.45 629.143 
35 2048092941 1864997364 147.727 -196.587 6.84495 -5.60816 -73.1959 50.1835 17.0989 -163.786 108.559 125.02 -105.997 -51.5305 
103 1100492234 119862626 -169.142 41.08 418.952 424.988 -55.8942 -283.817 341.545 -389.453 -82.3519 -85.6995 374.639 217.487 
111 13928800 203443104 61.7712 -162.345 -123.912 -188.263 659.471 -212.215 -238.7 -97.6609 -357.19 112.208 594.787 21.0635 
115 1014299656 1778321127 250.603 316.545 -548.315 108.99 -242.178 7.51752 512.946 -181.836 -233.855 -153.353 256.203 -306.942 
203 1720957669 258234081 -352.937 -241.738 27.9577 -20.5087 -158.603 -121.622 -352.405 -244.32 -121.321 -21.0404 -156.02 27.6568 
211 300969603 659240980 -52.8003 267.359 -763.726 125.186 66.0062 194.545 -315.308 518.898 -288.807 387.694 -185.533 -280.374 
215 200020814 1949705703 57.3452 -50.3107 -310.233 99.8803 -212.84 607.385 -229.01 -404.258 368.973 386.235 141.107 -71.8205 
223 1977985606 2136167894 371.828 -126.064 -38.3448 126.486 -217.309 87.0242 229.182 -44.9844 -43.5317 269.132 -298.388 92.2111 
231 840415302 672437858 122.305 54.2113 337.927 -372.584 329.467 173.126 88.0289 -5.04735 203.037 -338.308 388.726 308.016 
231 1531141823 1088965017 116.675 97.0453 23.7746 6.67927 115.621 -59.6611 85.9501 94.6688 46.2918 37.4038 117.998 -82.1783 
243 725926492 1673543287 -79.7344 -217.241 -249.01 175.196 175.913 143.626 282.66 -104.263 -229.469 -187.198 62.9352 124.085 
243 820967832 809942387 261.139 55.6158 56.4771 11.6298 -48.703 131.004 35.8243 88.4652 45.4286 236.944 -81.5525 142.052 
243 1708607181 1525472705 -362.718 -400.315 127.953 19.0271 -249.178 -37.6034 -367.359 -383.143 130.963 23.6677 -266.35 -40.6134 
303 1121379670 1512130528 197.681 -10.5143 143.805 310.949 79.3413 -12.2428 349.557 71.5604 95.1545 159.073 -2.73349 36.4082 
335 1314098984 53821783 -96.0719 -218.512 -170.507 -259.014 -246.199 43.8409 -119.27 -113.755 -34.1173 -235.816 -350.956 -92.5491 
343 2021926613 455291480 21.7341 -170.054 -170.069 237.201 79.0746 -200.496 20.6946 -89.7 -301.765 238.24 -1.27906 -68.8007 
411 295958458 1651830095 -18.0716 331.149 -240.97 -267.669 -214.756 -266.814 -119.393 84.7526 44.4172 -166.348 31.6406 -552.201 
411 2048876646 381221730 195.068 -50.1502 -55.2173 -100.417 14.7617 -99.2097 84.3426 -30.092 -225.001 10.3083 -5.29639 70.5738 
415 377632817 1652084378 204.451 -106.203 -66.6419 -177.384 -80.0883 298.024 251.029 20.9131 136.945 -223.962 -207.205 94.437 
431 1840801045 1382332152 -296.275 -153.454 -427.552 -424.667 97.9987 -539.181 -364.695 75.5714 -594.519 -356.248 -131.027 -372.213 
435 188484016 562162241 -424.245 2.82912 -801.82 134.302 358.134 -460.675 -419.734 344.342 -440.71 129.791 16.6214 -821.785 
511 468090371 744898292 469.291 -98.4414 -354.636 -16.1861 330.884 -305.341 197.978 -205.319 -367.47 255.126 437.761 -292.507 
511 744898292 246925581 255.126 437.761 -292.507 77.2725 -37.0889 -103.513 365.572 128.295 -29.8762 -33.1737 272.377 -366.143 
531 1044965299 163825480 -560.668 311.747 4.8302 131.229 128.94 -408.77 108.821 276.401 48.9893 -538.26 164.286 -452.929 
535 635354672 1782450856 109.951 171.906 -81.0617 423.958 -31.3035 -553.075 108.116 325.702 -302.462 425.793 -185.1 -331.675 
543 1002033049 1784148054 -131.268 273.972 -84.812 208.291 -90.4356 198.656 -173.632 -42.1142 195.423 250.654 225.651 -81.5796 
603 1189378831 501112132 -227.17 42.5745 -167.366 91.7261 -44.4003 39.6033 78.7683 -25.6576 -190.183 -214.212 23.8319 62.4208 
615 893731435 895973795 249.436 19.7743 -222.417 -263.536 -144.661 -26.4847 77.5667 -234.919 -337.134 -91.6666 110.032 88.2325 
623 1716628410 2100848778 492.829 187.642 -28.5839 174.879 -59.2028 -70.0271 324.499 -127.908 -112.034 343.208 256.347 13.4233 
631 1758387216 2066055636 347.214 -70.7832 -34.2648 -134.768 68.7126 -74.16 193.01 51.283 -284.582 19.4365 -53.3536 176.157 
631 730308046 1588997983 79.2009 -301.063 96.897 -256.173 171.457 -308.923 181.846 -276.414 -20.8575 -358.818 146.808 -191.168 
635 1326355292 362683792 -20.1067 270.018 38.6374 -39.1676 -278.034 -72.212 -11.3583 -246.668 -154.755 -47.916 238.652 121.181 
635 1326355292 362683792 -11.3583 -246.668 -154.755 -47.916 238.652 121.181 -14.7876 258.008 -113.637 -44.4867 -266.024 80.0628 
711 1198086819 1065615348 -103.017 -218.808 -263.927 -119.522 -109.472 4.85235 -242.8 -217.697 -98.7382 20.2611 -110.583 -160.336 
715 103160052 1786844861 461.987 -179.577 55.5458 111.917 -493.305 1.73753 465.876 -185.421 62.5019 108.028 -487.461 -5.21858 
731 1744110405 365350510 -34.4034 -32.5369 141.731 57.5384 -446.339 -457.435 223.111 -85.2038 -415.015 -199.975 -393.672 99.3113 
743 1033055248 175908810 68.9323 211.158 21.5254 23.7849 -259.473 322.47 217.878 -69.5518 388.896 -125.161 21.2369 -44.9011 
743 1306073301 2020723661 -293.135 26.0157 -411.051 283.196 -60.0624 -83.2192 -300.426 -59.0507 -397.797 290.487 25.004 -96.4728 
803 403614786 805341343 267.603 19.5368 -120.466 -184.44 -213.895 269.299 85.198 -142.054 388.696 -2.03498 -52.3048 -239.862 
811 1462096294 12920472 -122.141 101.504 28.8378 214.391 -120.945 -131.342 -45.9334 40.4613 138.763 138.184 -59.9021 -241.267 
831 76485419 1483065542 -212.224 -43.8848 65.3494 -104.31 -357.768 270.358 -306.121 -108.894 79.894 -10.4136 -292.758 255.813 
843 1175676350 773098957 -19.3064 -91.1925 -496.683 187.933 243.558 -87.5427 -42.6233 38.6329 -543.265 211.25 113.733 -40.9603 
903 182904135 1144307021 -359.493 104.373 -170.18 154.908 77.3955 -107.514 -314.451 239.59 -125.009 109.866 -57.8208 -152.685 
923 532536121 1923894772 -47.7402 -146.645 27.3635 161.558 -210.172 174.615 12.3246 -91.6626 189.694 101.494 -265.155 12.2849 
923 1587343422 532536121 49.4504 32.9542 -149.088 12.3246 -91.6626 189.694 135.706 92.9267 -63.2464 -73.9313 -151.635 103.852 
935 949134570 169304286 -75.2996 10.9587 44.6395 -9.87832 -122.614 -216.293 -53.3925 -174.58 5.45777 -31.7854 62.9254 -177.111 
4 2067887670 1571483293 -97.2875 -117.891 162.661 -546.401 90.6719 -147.788 -126.345 203.348 17.661 -517.343 -230.567 -2.78823 
4 1177112767 2067887670 193.402 -191.72 30.3188 -126.345 203.348 17.661 228.137 58.981 178.652 -161.08 -47.3535 -130.672 
4 545630241 1052475617 5.77465 85.1506 25.5495 -190.745 -141.647 -103.886 -67.2402 118.021 -107.51 -117.73 -174.517 29.1736 
12 1250713041 1715534285 -254.921 -127.424 548.962 -242.18 -296.503 357.631 -338.521 -126.126 423.688 -158.581 -297.801 482.904 
24 600285768 1145178451 207.222 109.283 31.9287 -353.519 -107.616 -63.3446 129.474 208.919 75.3012 -275.772 -207.251 -106.717 
112 109125719 1554147453 583.577 -447.79 -257.172 -45.813 -254.505 112.782 497.956 -119.843 119.149 39.8075 -582.452 -263.538 
132 2087906454 1323552104 -408.964 -408.418 -187.848 -77.3377 421.612 250.552 -635.527 53.9155 333.976 149.226 -40.7213 -271.273 
144 444484644 430964551 441.695 334.041 169.319 177.415 198.643 181.304 200.352 188.306 239.07 418.759 344.378 111.553 
144 444484644 553534678 200.352 188.306 239.07 -222.399 -0.650954 -113.663 -149.186 333.761 152.449 127.138 -146.106 -27.0419 
144 1658316050 444484644 17.3102 -507.772 -140.782 -149.186 333.761 152.449 -414.759 -214.54 265.699 282.883 40.5287 -254.031 
204 2038609387 427868101 539.927 -143.91 -751.43 -28.8814 308.444 373.721 -132.607 -374.458 -487.67 643.653 538.992 109.961 
204 2107870845 2145735082 179.26 186.614 -196.624 -91.6009 25.6998 -68.5926 84.3527 264.002 -84.0742 3.30618 -51.6881 -181.143 
224 1794892816 1923650335 -11.002 57.1194 70.9725 199.1 -322.249 -69.9426 -123.035 -111.182 66.8274 311.133 -153.948 -65.7974 
224 1052901970 868983155 238.069 32.4834 -116.232 106.184 -307.967 162.967 -42.4444 -215.135 -4.60544 386.698 -60.3484 51.3403 
232 339183898 284326411 -254.684 -143.548 277.694 86.8597 212.778 -128.548 -249.627 -238.702 74.9104 81.8023 307.931 74.236 
244 1770689988 2002321970 -177.03 45.4963 -67.6847 -148.061 346.651 -253.932 -233.315 141.565 -314.352 -91.7755 250.582 -7.26445 
312 1976675252 1165410903 8.99079 48.1283 -118.236 81.6493 483.025 -116.434 107.798 229.401 -325.643 -17.1583 301.752 90.9733 
324 2029193599 418383615 182.344 -76.1424 -541.52 -163.675 594.245 -24.9756 2.18727 450.388 -698.376 16.4814 67.7152 131.88 
324 485346656 66936768 -314.891 -73.1982 111.587 -108.723 -5.18634 -173.827 -216.965 131.002 -87.2908 -206.649 -209.387 25.0514 
344 351640510 886046308 -82.8641 -113.834 94.0972 -290.616 -10.147 -489.816 -186.438 -330.905 -35.3743 -187.043 206.924 -360.345 
404 1141287440 1399865787 245.335 194.202 473.637 112.257 -270.317 615.386 205.258 192.547 642.065 152.334 -268.661 446.958 
424 1997612545 1166167361 -376.351 -44.3926 -84.0369 221.982 -246.734 148.292 44.7117 -347.065 272.479 -199.08 55.9387 -208.223 
444 1869712892 1598142250 45.2874 -238.507 201.574 -34.2544 -25.7763 165.928 118.573 -148.784 171.331 -107.54 -115.5 196.17 
504 1291597949 820471849 -252.635 -50.6603 62.7779 60.8451 165.438 -442.974 -145.366 -254.705 -171.69 -46.4245 369.482 -208.506 
512 238622518 517451631 -213.763 30.2756 -712.22 -331.005 201.85 396.521 123.795 216.847 -546.446 -668.563 15.2787 230.747 
524 436102998 1969294134 110.081 65.7942 -131.217 0.489062 -148.867 -63.2831 3.99891 50.5478 -29.6746 106.571 -133.62 -164.825 
544 605044841 2062898627 -342.454 127.944 -12.5523 -95.9749 -411.639 42.265 -33.511 81.6672 -50.5805 -404.918 -365.363 80.2931 
544 1304437184 1574351024 282.986 -288.885 -30.7641 148.288 354.705 -396.254 -14.9465 -9.51964 80.625 446.22 75.3394 -507.643 
604 1467225679 156265571 -164.06 282.364 -422.08 125.817 149.269 -361.494 -81.7479 232.306 -242.926 43.5047 199.327 -540.648 
632 624326388 535429321 112.016 126.952 -146.313 -2.55696 -172.439 158.262 61.439 167.11 -107.13 48.0205 -212.597 119.079 
644 1282083383 1316308888 14.471 186.605 225.639 372.003 80.9297 -425.462 -9.51159 -76.7215 -335.113 395.986 344.256 135.291 
644 980100193 1453353456 414.532 -434.503 -437.376 130.682 279.772 -123.259 -54.661 -329.211 -323.063 599.875 174.479 -237.572 
704 728695528 886139324 -125.72 58.8145 194.695 -204.64 -168.549 -139.103 40.4845 -49.6012 24.5794 -370.844 -60.1332 31.0124 
724 2024112588 340193967 -174.678 -235.676 -328.187 39.7796 -61.1572 211.495 -350.817 -240.064 -115.179 215.918 -56.7698 -1.5127 
724 340193967 925645033 215.918 -56.7698 -1.5127 -328.128 62.7578 132.055 158.156 -185.316 90.9599 -270.366 191.304 39.5827 
804 2026660968 588428218 -25.9304 17.5253 106.8 -158.158 405.6 -315.19 -241.286 351.341 -315.689 57.1973 71.7844 107.299 
824 573102113 792529939 -138.333 -49.0372 72.1984 208.282 516.804 49.1391 79.4589 129.206 -251.223 -9.50953 338.561 372.561 
844 1533070626 496880576 -20.1833 170.656 496.503 26.8781 -217.165 -149.647 378.305 -44.799 211.839 -371.61 -1.70951 135.018 
924 2091489539 92283688 117.934 12.9587 246.922 110.598 -74.5447 -223.551 -122.1 6.19408 16.8778 350.632 -67.7801 6.49364 
944 1811240246 989052863 -154.145 550.25 341.467 -57.4689 -137.057 346.716 206.123 123.288 471.374 -417.736 289.905 216.808 
54 1240103859 1911347567 285.933 324.778 363.493 -171.861 -3.68543 103.181 -133.363 370.983 107.756 247.435 -49.8909 358.919 
62 431592727 1752976796 -157.472 -277.122 155.095 -222.706 163.046 -60.1658 -365.618 30.8168 197.653 -14.5607 -144.892 -102.723 
62 937900907 231595034 49.94 -117.282 58.8568 -329.439 -105.043 257.668 -179.25 -277.943 286.812 -100.249 55.6173 29.7125 
82 348683350 1331082017 -142.23 245.361 -308.422 134.131 333.147 360.011 222.785 438.18 -217.286 -230.884 140.328 268.875 
94 166186511 145794698 133.667 198.468 403.711 -127.512 141.582 405.331 -48.8023 218.361 517.814 54.9579 121.69 291.227 
182 776383815 1317572186 -318.47 114.952 -172.207 -296.166 26.6636 45.4849 -292.445 171.601 -122.859 -322.191 -29.9851 -3.86248 
262 1208430367 1518864101 153.469 -12.9213 -252.491 -429.489 -128.42 146.984 -209.232 165.095 -312.623 -66.7882 -306.437 207.115 
274 1196007744 634216227 256.709 -82.1506 -50.9858 -68.1249 123.898 -157.591 98.927 -117.795 39.1826 89.6567 159.542 -247.76 
282 1392983338 973428064 -278.557 -197.384 -128.011 138.809 218.699 332.511 -73.3041 -360.857 144.849 -66.4438 382.172 59.6505 
374 532011347 1610633576 -1.04337 205.985 225.728 -49.5717 450.695 -487.641 -236.586 634.657 -65.2721 185.971 22.0225 -196.641 
382 693991490 1587004343 -182.748 -305.897 -4.25725 194.407 541.578 482.203 -136.978 -241.628 592.052 148.636 477.309 -114.106 
454 1159812862 1156447732 43.8218 -112.588 -43.5459 -35.7256 161.082 -45.6281 37.7392 100.089 -160.43 -29.643 -51.5953 71.2562 
462 1108048183 421817190 578.827 -153.251 -299.28 67.1196 174.181 -193.535 585.883 -150.163 -234.721 60.0635 171.093 -258.094 
494 1423658293 1414626271 -406.844 410.487 -139.056 71.1448 112.711 -83.4922 -322.693 273.949 125.219 -13.0068 249.249 -347.767 
562 1617411801 1388494743 14.8676 -205.607 -113.984 -304.071 -157.32 -46.333 -46.8549 -301.844 -24.3771 -242.348 -61.0825 -135.94 
574 1500890247 753544160 -565.82 242.39 78.353 -69.2019 -0.127551 -258.221 -140.299 149.494 -359.142 -494.723 92.7679 179.274 
594 549359783 1524844488 -366.552 34.6422 0.93054 125.81 128.106 -273.5 -84.6336 -201.971 -128.843 -156.108 364.719 -143.727 
654 882996285 1698401246 207.012 -410.14 -60.7761 236.841 145.596 231.027 134.016 -352.569 291.186 309.837 88.0256 -120.936 
674 2101245996 72751381 242.369 -143.332 -190.895 404.443 228.792 287.821 506.058 228.671 -126.301 140.754 -143.212 223.226 
674 1548314359 1314259923 -308.198 -11.9524 -142.269 -191.236 -229.931 20.5991 -354.683 -108.842 42.9238 -144.751 -133.041 -164.594 
682 452534742 1557516532 -50.8421 531.476 -176.282 -312.555 409.688 298.029 -65.7388 581.304 -165.772 -297.658 359.859 287.518 
762 4283774 687912020 138.186 78.2088 -136.406 77.4034 -128.312 -219.788 3.02922 -73.4831 -179.868 212.56 23.3795 -176.326 
854 110196944 1450820207 85.8477 71.6128 60.3795 218.867 -79.4648 -94.1563 69.0072 70.3551 -77.18 235.707 -78.2071 43.4031 
854 413319943 158922669 182.315 -422.426 -5.50305 -212.508 70.3568 -35.395 113.915 38.6705 172.323 -144.109 -390.739 -213.221 
854 799564427 1450820207 -130.863 110.543 244.238 235.707 -78.2071 43.4031 154.364 105.342 -41.2186 -49.5201 -73.0067 328.86 
862 1406162465 520990555 -484.792 311.124 -102.834 157.488 97.7054 -189.423 -476.583 93.7077 -67.3237 149.279 315.122 -224.934 
862 1244558612 420316329 -62.4658 -169.119 240.812 -463.761 -407.534 178.849 -256.616 -73.6226 306.213 -269.61 -503.031 113.447 
874 79389017 331505040 -267.505 7.90962 -140.464 251.85 201.975 -118.999 -168.612 -15.0968 61.846 152.957 224.981 -321.308 
962 1887029337 857844960 370.728 206.786 -315.898 -54.5798 210.333 238.44 278.532 502.556 -184 37.6163 -85.4372 106.541 
974 1750599845 978227136 33.9552 -213.402 -9.54891 122.468 -80.8642 -9.97944 16.2666 -97.0057 -9.20395 140.156 -197.261 -10.3244 
994 1968319432 518989161 -616.105 -521.053 -97.2644 11.4081 424.484 -290.526 -467.319 -343.519 271.843 -137.378 246.95 -659.633 
53 24641749 201428086 -102.24 104.948 -218.66 -111.405 -237.074 -22.5606 31.0382 56.3983 -190.446 -244.683 -188.525 -50.7742 
61 314980458 1719005275 -100.063 160.268 -20.2404 300.178 299.995 137.553 3.33504 25.8778 67.5388 196.78 434.385 49.7734 
73 117346527 1947617081 360.665 72.751 -424.81 83.8151 -203.93 -116.237 85.4883 133.744 -209.952 358.992 -264.923 -331.096 
81 760364600 944178031 204.485 -205.468 -158.853 -459.424 55.1261 105.49 -143.941 117.576 -354.123 -110.998 -267.918 300.76 
93 1621219912 1306393542 -227.369 264.388 -302.944 -105.18 -262.542 573.075 13.7567 44.8421 615.335 -346.305 -42.9964 -345.204 
93 871402940 723884089 478.324 448.021 -433.598 -32.1128 19.064 357.865 -204.911 489.714 -175.411 651.123 -22.6292 99.6777 
153 70722473 2055350293 -392.523 113.956 156.442 -31.9112 28.7817 -11.1136 -167.88 -114.425 142.359 -256.554 257.163 2.96976 
181 681232426 2051696856 -380.639 73.0587 -296.267 6.98232 -130.313 93.5482 16.0747 69.6168 85.9106 -389.732 -126.871 -288.63 
181 1823441305 2051696856 -73.5091 -84.0986 490.865 -389.732 -126.871 -288.63 -457.804 239.518 185.815 -5.4368 -450.487 16.4203 
185 1222674856 1796316145 -4.15645 -438.062 194.828 27.3653 -184.517 4.4846 107.92 -184.659 91.5583 -84.7108 -437.919 107.754 
253 1148314515 1522368773 -578.046 -434.917 -33.6342 147.983 48.1384 75.9299 168.204 -379.658 -86.3264 -598.267 -7.12051 128.622 
261 1105422810 372096548 -62.4447 443.313 124.077 25.8905 -176.518 227.723 -90.943 -114.997 359.485 54.3888 381.793 -7.68546 
353 292693040 140284918 87.8328 489.017 37.1042 -175.358 -318.591 -199.757 261.454 46.5116 234.499 -348.98 123.915 -397.151 
373 443544966 1330923790 -114.02 86.3014 -40.6385 -174.569 -254.063 205.139 -69.6338 -104.932 -115.14 -218.956 -62.8297 279.64 