ITEM: TIMESTEP
0
ITEM: NUMBER OF TALLIES
0
ITEM: BOX BOUNDS rr rr rr
0 0.0001
0 0.0001
0 0.0001
ITEM: TALLIES c_1[1] c_1[2] c_1[3] c_1[4] c_1[5] c_1[6] c_1[7] c_1[8] c_1[9] c_1[10] c_1[11] c_1[12] c_1[13] c_1[14] c_1[15] c_1[16] c_1[17] c_1[18] c_1[19] c_1[20] c_1[21] 
ITEM: TIMESTEP
100
ITEM: NUMBER OF TALLIES
2
ITEM: BOX BOUNDS rr rr rr
0 0.0001
0 0.0001
0 0.0001
ITEM: TALLIES c_1[1] c_1[2] c_1[3] c_1[4] c_1[5] c_1[6] c_1[7] c_1[8] c_1[9] c_1[10] c_1[11] c_1[12] c_1[13] c_1[14] c_1[15] c_1[16] c_1[17] c_1[18] c_1[19] c_1[20] c_1[21] 
9 709 695842718 641945757 695842718 641945757 1816235013 1 1 2 2 1 -1720.19 -2536.02 1013.31 -1720.19 -2536.02 1013.31 -170.179 -2156.89 1096.13 
9 784 592962830 93570586 592962830 93570586 1020113734 1 1 2 2 1 3013.43 -748.487 -3178.81 3013.43 -748.487 -3178.81 3021.44 -2466.81 531.003 
ITEM: TIMESTEP
200
ITEM: NUMBER OF TALLIES
2
ITEM: BOX BOUNDS rr rr rr
0 0.0001
0 0.0001
0 0.0001
ITEM: TALLIES c_1[1] c_1[2] c_1[3] c_1[4] c_1[5] c_1[6] c_1[7] c_1[8] c_1[9] c_1[10] c_1[11] c_1[12] c_1[13] c_1[14] c_1[15] c_1[16] c_1[17] c_1[18] c_1[19] c_1[20] c_1[21] 
9 77 1398384410 620646437 1398384410 620646437 643965584 1 1 2 2 1 1996.56 2846.6 -1699.35 1996.56 2846.6 -1699.35 -1363.94 -824.588 -1827.29 
9 321 101432249 848689125 101432249 848689125 647407905 1 1 2 2 1 -1374.52 -544.623 -1665.4 -1374.52 -544.623 -1665.4 -4217.52 273.914 -1507.42 
ITEM: TIMESTEP
300
ITEM: NUMBER OF TALLIES
0
ITEM: BOX BOUNDS rr rr rr
0 0.0001
0 0.0001
0 0.0001
ITEM: TALLIES c_1[1] c_1[2] c_1[3] c_1[4] c_1[5] c_1[6] c_1[7] c_1[8] c_1[9] c_1[10] c_1[11] c_1[12] c_1[13] c_1[14] c_1[15] c_1[16] c_1[17] c_1[18] c_1[19] c_1[20] c_1[21] 
ITEM: TIMESTEP
400
ITEM: NUMBER OF TALLIES
3
ITEM: BOX BOUNDS rr rr rr
0 0.0001
0 0.0001
0 0.0001
ITEM: TALLIES c_1[1] c_1[2] c_1[3] c_1[4] c_1[5] c_1[6] c_1[7] c_1[8] c_1[9] c_1[10] c_1[11] c_1[12] c_1[13] c_1[14] c_1[15] c_1[16] c_1[17] c_1[18] c_1[19] c_1[20] c_1[21] 
10 68 269965402 1223228301 269965402 1223228301 426458044 1 2 2 2 2 1621.81 2061.06 -1565.25 1621.81 2061.06 -1565.25 -1541.93 4562.72 2646.46 
9 342 63284066 1294637413 63284066 1294637413 1002915246 1 1 2 2 1 -1458.33 -759.087 -3323.08 -1458.33 -759.087 -3323.08 1315.41 2885.25 -337.121 
9 382 1138548881 1556511123 1138548881 1556511123 280746058 1 1 2 2 1 -2380.47 747.531 -3189.22 -2380.47 747.531 -3189.22 2840.24 -1301.97 -5926.43 
ITEM: TIMESTEP
500
ITEM: NUMBER OF TALLIES
2
ITEM: BOX BOUNDS rr rr rr
0 0.0001
0 0.0001
0 0.0001
ITEM: TALLIES c_1[1] c_1[2] c_1[3] c_1[4] c_1[5] c_1[6] c_1[7] c_1[8] c_1[9] c_1[10] c_1[11] c_1[12] c_1[13] c_1[14] c_1[15] c_1[16] c_1[17] c_1[18] c_1[19] c_1[20] c_1[21] 
9 82 926560479 428131138 926560479 428131138 1325910361 1 1 2 2 1 -4063.29 94.7704 1973.36 -4063.29 94.7704 1973.36 1467.14 1424.05 1448.79 
10 562 218761977 1123977156 218761977 1123977156 578731935 1 2 2 2 2 -106.281 1440.99 1668 -106.281 1440.99 1668 -2862.63 -1041.79 1581.92 
ITEM: TIMESTEP
600
ITEM: NUMBER OF TALLIES
1
ITEM: BOX BOUNDS rr rr rr
0 0.0001
0 0.0001
0 0.0001
ITEM: TALLIES c_1[1] c_1[2] c_1[3] c_1[4] c_1[5] c_1[6] c_1[7] c_1[8] c_1[9] c_1[10] c_1[11] c_1[12] c_1[13] c_1[14] c_1[15] c_1[16] c_1[17] c_1[18] c_1[19] c_1[20] c_1[21] 
10 543 317688897 1610136706 317688897 1610136706 1153441570 1 2 2 2 2 -1478.84 3267.22 1900.55 -1478.84 3267.22 1900.55 -4072.24 1652.97 1961.59 
ITEM: TIMESTEP
700
ITEM: NUMBER OF TALLIES
0
ITEM: BOX BOUNDS rr rr rr
0 0.0001
0 0.0001
0 0.0001
ITEM: TALLIES c_1[1] c_1[2] c_1[3] c_1[4] c_1[5] c_1[6] c_1[7] c_1[8] c_1[9] c_1[10] c_1[11] c_1[12] c_1[13] c_1[14] c_1[15] c_1[16] c_1[17] c_1[18] c_1[19] c_1[20] c_1[21] 
ITEM: TIMESTEP
800
ITEM: NUMBER OF TALLIES
1
ITEM: BOX BOUNDS rr rr rr
0 0.0001
0 0.0001
0 0.0001
ITEM: TALLIES c_1[1] c_1[2] c_1[3] c_1[4] c_1[5] c_1[6] c_1[7] c_1[8] c_1[9] c_1[10] c_1[11] c_1[12] c_1[13] c_1[14] c_1[15] c_1[16] c_1[17] c_1[18] c_1[19] c_1[20] c_1[21] 
9 619 230584005 96969057 230584005 96969057 1715755643 1 1 2 2 1 -1161.9 1118.61 -689.069 -1161.9 1118.61 -689.069 2419.63 -2151.56 3591.47 
ITEM: TIMESTEP
900
ITEM: NUMBER OF TALLIES
2
ITEM: BOX BOUNDS rr rr rr
0 0.0001
0 0.0001
0 0.0001
ITEM: TALLIES c_1[1] c_1[2] c_1[3] c_1[4] c_1[5] c_1[6] c_1[7] c_1[8] c_1[9] c_1[10] c_1[11] c_1[12] c_1[13] c_1[14] c_1[15] c_1[16] c_1[17] c_1[18] c_1[19] c_1[20] c_1[21] 
9 142 151674371 2121017403 151674371 2121017403 871340203 1 1 2 2 1 2965.98 -1256.66 -794.637 2965.98 -1256.66 -794.637 4235.08 638.347 -1005.6 
9 209 1068960333 562865213 1068960333 562865213 2080502307 1 1 2 2 1 -1636.98 975.208 -1866.41 -1636.98 975.208 -1866.41 -3626.97 259.977 -2963.58 
ITEM: TIMESTEP
1000
ITEM: NUMBER OF TALLIES
0
ITEM: BOX BOUNDS rr rr rr
0 0.0001
0 0.0001
0 0.0001
ITEM: TALLIES c_1[1] c_1[2] c_1[3] c_1[4] c_1[5] c_1[6] c_1[7] c_1[8] c_1[9] c_1[10] c_1[11] c_1[12] c_1[13] c_1[14] c_1[15] c_1[16] c_1[17] c_1[18] c_1[19] c_1[20] c_1[21] 
