ITEM: TIMESTEP
0
ITEM: NUMBER OF TALLIES
0
ITEM: BOX BOUNDS rr rr rr
0 0.0001
0 0.0001
0 0.0001
ITEM: TALLIES c_1[1] c_1[2] c_1[3] c_1[4] c_1[5] c_1[6] c_1[7] c_1[8] c_1[9] c_1[10] c_1[11] c_1[12] c_1[13] c_1[14] c_1[15] 
ITEM: TIMESTEP
500
ITEM: NUMBER OF TALLIES
710
ITEM: BOX BOUNDS rr rr rr
0 0.0001
0 0.0001
0 0.0001
ITEM: TALLIES c_1[1] c_1[2] c_1[3] c_1[4] c_1[5] c_1[6] c_1[7] c_1[8] c_1[9] c_1[10] c_1[11] c_1[12] c_1[13] c_1[14] c_1[15] 
5 1422898037 1756326424 299.518 48.6563 -94.7458 -148.486 115.053 271.938 241.16 -127.383 -28.345 -90.1283 291.092 205.537 
13 354886724 756603077 73.1396 -201.097 71.3906 -314.888 297.617 40.9117 -106.759 -259.709 126.923 -134.989 356.228 -14.6208 
13 354886724 1883228948 -106.759 -259.709 126.923 159.549 -486.404 -138.042 144.524 -369.573 179.272 -91.7351 -376.54 -190.391 
25 678659082 2105796750 -22.4163 401.64 514.785 225.61 420.775 -382.787 -360.964 432.858 16.5208 564.158 389.556 115.477 
33 1607313669 678126501 245.325 107.229 158.291 -180.876 177.349 -267.62 -205.682 286.184 66.5198 270.131 -1.60632 -175.849 
33 1226288691 2012003127 32.2747 430.891 110.015 43.9999 -411.127 -408.086 489.096 201.367 -215.066 -412.821 -181.604 -83.0043 
41 2033647926 2050902592 -48.6102 -48.2855 125.306 -117.638 271.399 96.3328 -51.1642 -38.16 170.099 -115.084 261.274 51.5398 
105 854218494 1012018655 -523.916 -37.1872 141.468 -46.6386 459.925 411.196 -461.411 -111.341 318.192 -109.144 534.079 234.472 
113 22033658 487082965 141.716 -277.394 35.5244 180.673 117.836 250.331 73.5915 -285.202 109.856 248.798 125.644 175.999 
141 117346527 2135177526 297.298 271.518 22.5175 -49.6693 -194.283 90.069 162.954 -250.567 38.3848 84.6748 327.801 74.2017 
141 2135177526 364099482 84.6748 327.801 74.2017 -416.33 -135.416 -68.6763 109.262 -86.4346 114.433 -440.918 278.82 -108.908 
201 1004020189 1376274640 78.0746 -1.43405 324.587 369.493 -468.798 -385.162 -163.771 -22.3303 49.0743 611.338 -447.902 -109.649 
205 1833764476 692062002 35.4019 -127.6 -115.598 -250.551 198.507 -135.271 -11.3103 -52.7966 47.9742 -203.839 123.704 -298.844 
213 1883240991 1044587025 -437.608 109.041 -311.704 206.885 -105.971 -39.8773 -447.398 -100.313 -60.6738 216.674 103.383 -290.907 
225 2134608252 1728788433 -222.997 356.664 419.046 212.886 -173.342 45.5037 223.178 -213.132 319.563 -233.289 396.454 144.987 
233 962102839 258766221 84.0806 -23.1855 151.089 348.957 -80.009 -96.5728 318.579 7.41998 -113.39 114.459 -110.615 167.906 
241 1877989569 1362798995 56.52 -8.04294 59.7382 28.2524 257.431 155.421 143.146 199.472 173.637 -58.3732 49.9161 41.5229 
245 17632612 1326085555 -365.721 340.446 -216.779 98.6366 367.241 -47.3174 -337.364 242.985 -45.8321 70.2789 464.702 -218.265 
245 1326085555 1083389606 70.2789 464.702 -218.265 -193.514 432.314 52.2088 73.793 326.703 -135.71 -197.028 570.313 -30.3461 
301 250871165 982098560 71.5644 116.058 -15.3651 217.897 -0.205036 -436.333 347.364 161.663 -260.702 -57.9019 -45.8107 -190.997 
305 1779938311 519528183 107.528 459.737 279.018 -136.764 -45.2643 -121.726 231.759 441.497 135.616 -260.995 -27.0243 21.6764 
313 592950016 1515407966 635.984 51.7454 156.577 -265.478 129.862 -451.523 615.053 -96.5909 130.53 -244.547 278.198 -425.476 
321 1284794845 965834358 -561.652 309.243 -552.929 337.386 398.868 206.871 145.366 0.901012 223.677 -369.632 707.21 -569.735 
321 965834358 888042663 -369.632 707.21 -569.735 76.3918 -590.095 177.488 174.185 723.266 -451.694 -467.425 -606.152 59.4473 
333 502833184 1145671049 -183.476 297.447 -152.771 61.3486 232.734 -434.089 -237.145 210.463 -250.674 115.017 319.718 -336.187 
341 1021843444 1969857940 85.3682 -853.553 8.43353 -317.691 625.013 -20.8333 -845.606 -97.1049 228.286 613.283 -131.436 -240.686 
401 1401583265 1929470879 260.824 328.258 127.596 447.623 165.51 40.8269 285.288 265.287 194.378 423.16 228.48 -25.9545 
421 1058200810 897344776 -270.143 -177.209 32.9655 -172.111 671.422 88.3035 -259.795 395.059 460.418 -182.46 99.1544 -339.149 
445 1475603936 1059107658 -381.507 -149.43 420.873 150.816 -135.031 -121.472 -105.7 -9.76191 -206.372 -124.991 -274.699 505.772 
445 759903463 95826153 -36.6851 309.126 128.96 70.0758 519.12 478.283 3.23082 565.715 449.289 30.1599 262.531 157.954 
501 1537850012 382374596 -30.1371 157.016 140.114 -656.099 220.757 147.415 -155.124 86.1699 374.185 -531.112 291.602 -86.6557 
505 1719830160 1192237074 68.6513 50.2496 -77.1552 -277.52 -161.159 143.258 48.8663 28.8907 -117.488 -257.735 -139.8 183.592 
513 6411260 970391190 72.0464 -346.438 4.50709 -269.921 421.369 -72.3544 171.434 258.922 -270.463 -369.309 -183.991 202.615 
521 176032090 925645033 -503.422 21.8746 -155.174 -28.4828 403.641 98.7697 -32.2129 139.551 193.059 -499.692 285.964 -249.464 
533 374176573 1108848134 -445.467 284.034 -212.535 151.591 -122.552 -279.046 -413.772 283.197 -384.948 119.897 -121.714 -106.634 
545 1504292681 810078930 -372.327 -112.143 -95.5645 270.029 -264.708 207.934 -191.876 -483.04 -103.19 89.5779 106.189 215.56 
545 2077850544 1942434235 144.092 88.7682 98.4653 -290.452 -204.659 27.9119 153.381 -135.094 -49.4811 -299.741 19.2029 175.858 
613 370798047 255474341 39.0952 -161.989 141.391 -12.382 458.651 285.201 -59.2727 55.4199 510.321 85.9859 241.242 -83.7295 
633 509719232 1083640277 -237.95 109.733 -105.828 -72.2996 367.875 -258.375 -72.4743 89.0284 -173.552 -237.775 388.58 -190.651 
705 1579083571 701771037 101.533 113.16 63.8154 -246.701 -258.836 -55.4741 -49.0256 157.618 -117.502 -96.1422 -303.294 125.843 
725 921349136 688655794 -22.7166 -240.06 -177.269 -255.95 -303.961 267.228 63.7257 -368.399 -71.1709 -342.392 -175.622 161.129 
745 2036879909 1470778708 130.369 -247.361 -135.452 325.459 -337.009 -53.987 180.819 -394.773 -73.7167 275.009 -189.597 -115.722 
745 1658316050 934474337 89.9144 428.122 -573.615 -117.957 82.7444 60.1365 355.729 317.094 -279.483 -383.771 193.773 -233.996 
801 226139983 1032981976 140.496 91.3333 194.256 149.583 -450.512 -90.9896 124.146 95.1555 185.198 165.933 -454.334 -81.9322 
801 966511524 1101344027 65.9373 98.9767 12.269 -131.955 -63.1999 -77.6144 14.1136 119.112 44.2601 -80.1312 -83.3353 -109.606 
805 380508701 667383347 454.206 54.8941 -19.3363 -268.828 -126.953 164.429 239.006 70.7545 411.062 -53.6285 -142.813 -265.969 
825 1920068412 1428218245 147.683 371.35 -92.2688 -151.465 -107.6 -125.924 -69.1736 401.793 -57.896 65.3917 -138.042 -160.296 
833 959601321 100407294 -167.431 -106.646 -8.20109 285.155 61.5847 617.584 -91.2106 61.4225 -51.1398 208.934 -106.483 660.522 
841 1062285840 2109047999 -138.78 -75.5913 -91.9891 9.29519 369.37 -203.968 166.828 149.55 -81.0308 -296.313 144.229 -214.926 
845 859712522 1922788281 84.8822 -86.3705 423.706 359.558 345.235 4.72309 184.502 449.465 288.212 259.938 -190.6 140.217 
901 760346252 667470447 -303.422 -24.4108 -459.664 362.074 74.2294 -175.043 65.6007 -332.742 -252.733 -6.94966 382.56 -381.974 
901 1382192793 760346252 -164.402 232.042 -188.194 65.6007 -332.742 -252.733 248.252 -97.6898 -164.128 -347.053 -3.00961 -276.799 
921 230423689 1656922195 161.662 80.5526 -237.014 19.5613 415.944 96.0543 305.007 305.252 -178.595 -123.784 191.245 37.6351 
925 572405697 149968700 -486.962 -217.154 461.202 282.002 46.8751 36.7007 -423.328 -406.732 311.715 218.369 236.453 186.188 
933 1981512149 630964771 382.416 144.467 55.3801 -86.6691 144.314 -49.1793 162.689 360.684 106.738 133.057 -71.9033 -100.538 
941 1936948752 403527040 -89.3842 272.709 73.1023 246.701 251.123 160.436 -55.1182 161.883 68.2018 212.435 361.949 165.336 
945 1652938068 1884903036 11.3166 -307.862 34.8136 127.824 112.977 -103.526 248.366 -170.097 -157.676 -109.226 -24.7881 88.9631 
14 710178449 2106253889 105.439 -153.573 -279.596 -352.651 -629.099 64.2963 -256.421 -645.288 -345.194 9.20895 -137.385 129.894 
14 710178449 1097762207 -256.421 -645.288 -345.194 132.492 62.6827 -14.7068 284.57 -41.8267 -269.949 -408.499 -540.778 -89.9515 
22 1725147106 251791570 96.2564 -293.314 6.45202 -409.245 -93.0439 -72.2502 -18.6412 -427.259 7.86225 -294.348 40.9011 -73.6605 
34 519358676 992915018 232.553 107.632 -180.192 174.929 -45.8987 11.8779 191.161 132.126 -9.76593 216.322 -70.3925 -158.548 
42 866482771 1179260375 -38.7939 113.597 -303.534 -180.903 -50.549 -178.671 -157.8 -27.8827 -340.369 -61.8964 90.9308 -141.836 
102 1257292604 1785272852 24.9355 -455.722 -5.39242 -34.5605 294.615 172.465 -253.305 -190.55 358.667 243.68 29.4428 -191.594 
114 1106226011 1552130199 404.761 6.45223 -323.625 -183.578 -132.516 -398.006 -101.359 131.788 -261.473 322.543 -257.852 -460.157 
114 811557894 1977985606 260.839 -535.862 -136.405 -322.829 11.9374 -181.283 49.5479 -590.362 -374.153 -111.539 66.4374 56.4656 
134 886464312 943524449 -390.307 -151.959 359.717 18.8395 145.469 275.858 -435.267 -61.524 325.604 63.7991 55.0334 309.971 
202 29101929 247364249 30.1184 31.5651 -174.435 98.3754 112.634 -47.5929 -17.3342 84.9162 -107.809 145.828 59.2827 -114.219 
222 508079220 261342718 266.21 -3.3147 26.7412 493.658 -219.424 -190.478 485.818 -238.085 13.7175 274.049 15.3461 -177.454 
234 1530478940 1364286405 111.817 -37.7589 248.68 295.678 274.453 -1.27288 6.99216 154.801 32.0637 400.503 81.8934 215.344 
242 923370766 100231997 228.69 -281.676 -211.166 -396.955 -189.228 -224.282 -399.044 -213.732 -197.815 230.779 -257.172 -237.633 
302 915224654 852047285 -1.6575 -294.734 -84.1011 250.549 197.885 -85.0674 387.883 -70.1896 -2.74515 -138.992 -26.6589 -166.423 
302 915224654 975207708 387.883 -70.1896 -2.74515 36.2238 269.324 -136.961 365.721 65.9658 128.878 58.386 133.168 -268.585 
314 1327060985 61648856 -40.0114 -175.737 -116.594 -241.313 135.587 -386.47 -229.339 -153.675 -415.413 -51.9858 113.525 -87.6504 
322 987053389 2127763004 339.108 -250.954 87.2094 -317.354 46.6233 -40.6619 284.587 36.7381 222.648 -262.833 -241.069 -176.101 
334 743366509 1301898622 -649.128 -246.97 -349.921 29.2237 101.033 373.011 -783.149 -77.6162 239.662 163.245 -68.3211 -216.571 
414 235224689 1171384756 402.48 -127.712 22.9817 364.636 -36.6755 11.6071 382.733 -106.633 60.4718 384.382 -57.7538 -25.8831 
422 344090497 384237371 -448.679 -21.132 -292.322 15.6925 109.611 -185.232 -450.776 -27.8705 -269.803 17.789 116.35 -207.75 
422 1043296692 2124053511 186.315 260.907 -516.13 276.137 -210.538 40.2479 401.293 -133.668 -522.22 61.1595 184.038 46.3377 
422 1818321944 741248888 17.5165 38.3186 -510.007 -46.667 32.4298 307.879 279.602 306.573 -10.599 -308.753 -235.825 -191.529 
502 1402683554 1154516255 -176.397 -234.57 -349.285 245.195 373.844 -317.189 166.356 -276.515 -333.999 -97.5576 415.789 -332.476 
514 322153451 2028389722 273.709 430.162 -69.1367 134.37 83.0152 231.805 428.978 243.537 -1.4634 -20.8988 269.64 164.132 
522 375507268 149569115 -38.8449 55.0936 -401.438 -258.041 174.27 -228.974 -11.1932 87.1301 -373.531 -285.693 142.233 -256.881 
522 1547600836 1457440126 -10.1243 -229.35 312.142 732.796 -279.677 51.8276 116.925 21.8334 42.5123 605.747 -530.86 321.457 
534 1354507862 60262847 12.7768 149.149 344.041 -223.551 165.12 -104.961 -176.932 184.94 -122.401 -33.8419 129.328 361.481 
602 1972947444 1362852463 147.768 364.57 162.4 -30.9757 -219.537 -183.7 396.143 135.2 -82.948 -279.35 9.83231 61.6482 
634 1919616212 1113699315 147.477 -197.954 159.765 186.36 52.7797 -277.1 202.305 -300.097 45.2297 131.532 154.923 -162.564 
702 390198068 980691086 -158.618 -57.6568 0.0610179 -423.003 -55.0027 24.6601 -170.319 -84.4355 -35.8042 -411.301 -28.224 60.5253 
714 963591881 1320009422 49.4977 353.445 -179.716 249.564 -27.3848 -43.2411 285.252 196.308 -288.659 13.8092 129.752 65.7022 
722 1381313371 1378613451 176.278 -361.708 -158.468 -38.1658 163.809 -191.102 -121.581 90.4312 -267.505 259.693 -288.33 -82.0642 
734 1595272054 1610971605 -281.892 284.011 -246.375 -379.152 -409.629 635.143 -470.157 369.359 -138.258 -190.887 -494.977 527.025 
814 859479281 169304286 -342.52 211.05 -130.138 96.9764 18.5904 89.0639 -240.202 254.953 -210.628 -5.34136 -25.3131 169.554 
822 1268628307 1135362715 180.261 -135.38 574.269 -244.051 -308.554 339.147 139.689 -410.304 494.339 -203.479 -33.63 419.076 
834 2118888888 2066633155 -384.096 -98.3676 -201.773 -144.227 29.1626 40.7188 -372.222 -120.799 37.9798 -156.1 51.5938 -199.034 
922 913177320 557237631 30.5245 349.95 14.7239 269.138 406.871 106.097 194.696 302.908 -36.6357 104.967 453.913 157.457 
942 292168596 1586826158 -147.897 -234.377 70.022 238.186 -119.088 -351.612 -198.679 -207.046 16.249 288.968 -146.419 -297.839 
942 292168596 41209081 -198.679 -207.046 16.249 -132.599 -285.415 -60.1064 -147.624 -210.05 -71.4373 -183.654 -282.411 27.5799 
23 162342930 184266520 42.2257 238.672 283.897 340.621 -18.1159 -145.003 -75.0445 -6.75546 75.0956 457.892 227.312 63.7984 
23 2011197254 952206940 -117.222 20.223 48.8942 -311.897 -34.3204 -143.268 -176.248 112.343 -108.244 -252.871 -126.44 13.8694 
31 1120860552 1857725463 -43.535 61.3666 191.622 -142 457.434 352.016 88.9055 152.537 332.216 -274.441 366.264 211.421 
35 847971982 1415406458 246.811 254.378 -218.114 -278.599 378.017 -288.056 199.386 315.087 -86.6171 -231.175 317.308 -419.553 
35 1619666715 1871249484 570.565 38.745 321.195 22.7032 -557.305 81.4294 593.48 -42.5432 409.005 -0.212104 -476.017 -6.38073 
43 1675104280 1061279258 -665.046 523.519 1.51905 -197.57 61.8232 372.65 -68.8577 325.813 87.636 -793.758 259.529 286.533 
43 449986259 1771417167 -311.434 -139.771 10.9547 -13.3632 -184.111 -563.395 -132.164 -7.54124 7.36249 -192.633 -316.34 -559.803 
111 1107366327 1374784849 264.648 383.038 230.954 -208.586 79.4942 -330.226 157.55 465.298 -343.246 -101.489 -2.76585 243.974 
111 554157225 849672280 -248.41 69.3331 352.354 20.1393 -286.266 -72.5612 130.685 71.0344 88.6802 -358.956 -287.967 191.113 
143 1862540396 1125340315 -213.013 -610.926 58.474 -228.721 -224.797 -324.316 -397.861 -503.42 55.0178 -43.8744 -332.304 -320.859 
143 302191534 7495716 -54.4529 445.512 -486.011 -204.417 -135.043 32.709 -8.17091 -121.307 30.1966 -250.699 431.776 -483.499 
203 1311210294 934951050 -86.5883 -98.3192 176.013 75.5665 -33.6685 313.825 -47.1884 35.4881 263.109 36.1666 -167.476 226.728 
203 1074487698 606374222 177.1 85.86 -60.8854 388.278 38.5393 -125.546 200.676 69.0515 -170.553 364.702 55.3478 -15.8786 
223 15167930 1612658988 230.902 131.805 269.619 82.0961 251.561 -164.123 134.765 294.696 265.045 178.233 88.67 -159.549 
231 589671835 446413497 170.026 -139.576 -260.074 -239.343 82.6123 0.815354 136.106 -157.905 29.5639 -205.424 100.942 -288.823 
243 968116781 1415790665 -4.13726 252.293 60.6019 71.0952 424.441 -561.99 96.0177 377.225 66.02 -29.0598 299.508 -567.408 
243 1771717465 1415790665 -209.118 148.54 161.363 -29.0598 299.508 -567.408 153.224 -9.90485 -336.075 -391.402 457.953 -69.9698 
303 1845732834 1236125139 392.156 -211.784 -50.2182 -199.905 -206.381 31.9099 134.342 -158.743 282.964 57.9094 -259.422 -301.273 
331 133842899 708417166 -171.984 232.079 -75.2038 167.397 -123.799 346.242 -85.5008 -255.968 93.4413 80.9139 364.249 177.597 
331 852172189 708417166 -608.402 -182.914 42.3946 80.9139 364.249 177.597 -87.6831 277.078 473.946 -439.805 -95.7428 -253.954 
343 324844753 1548164507 -135.709 111.718 -261.596 -91.7011 471.458 -132.114 31.4804 253.157 -317.159 -258.89 330.02 -76.5513 
343 1802631490 324844753 23.399 -261.763 -153.118 31.4804 253.157 -317.159 -44.3337 -263.537 -261.132 99.213 254.931 -209.145 
415 609720261 1285122959 -178.251 -694.344 -74.3091 71.5181 152.558 13.288 23.429 165.207 -3.21766 -130.162 -706.993 -57.8034 
415 394094310 211695781 -78.9451 362.659 -253.244 -18.132 -203.099 250.614 67.3171 316.434 272.52 -164.394 -156.874 -275.15 
423 1763779876 548680175 -355.42 235.157 28.7259 131.447 240.951 -112.04 -295.036 380.116 -144.289 71.0627 95.9917 60.9748 
443 495708819 500870317 575.223 -160.496 57.7717 -285.359 -71.8647 -313.111 217.493 -302.214 298.511 72.3708 69.8525 -553.85 
503 1491805231 2143374664 -9.0829 -175.821 -387.111 6.48748 376.767 277.996 -310.043 34.1087 -349.961 307.448 166.837 240.846 
535 449112444 1892170235 231.648 -319.939 -166.971 -466.313 31.6992 235.018 4.09511 -126.401 455.971 -238.76 -161.84 -387.924 
543 230163779 1192968449 236.398 -55.0222 213.043 -253.833 -60.0589 183.699 -144.004 5.82217 393.271 126.569 -120.903 3.47039 
543 1948859824 2115557130 189.212 -207.77 52.5906 -284.414 43.9034 -205.507 11.543 -276.711 140.641 -106.746 112.845 -293.558 
603 996238593 1525747265 -376.165 -293.172 35.4079 9.96436 199.686 -78.8895 109.094 -47.4985 -147.792 -475.295 -45.9873 104.31 
611 481237785 1389582871 -370.58 190.825 -137.654 -158.837 13.5883 -406.787 -407.937 230.757 -283.645 -121.48 -26.3438 -260.797 
615 1652053319 1046098168 -40.7184 299.327 -271.768 35.615 63.099 73.3508 189.951 144.355 -181.479 -195.055 218.071 -16.9382 
623 253717792 1606556061 513.659 -84.6359 251.763 -132.177 -5.8423 -362.058 -148.813 -158.181 213.123 530.295 67.703 -323.419 
623 1606556061 1689260095 530.295 67.703 -323.419 -661.391 99.8171 11.0948 364.252 -217.858 -484.127 -495.347 385.378 171.803 
631 348070821 1507608209 74.7002 88.5541 60.9568 -390.461 497.097 140.198 -347.594 266.731 346.987 31.8337 318.92 -145.833 
631 1544087009 2105509283 -158.671 -25.4518 -87.1678 -534.883 32.7429 -250.416 -279.732 -121.403 -319.659 -413.822 128.694 -17.9246 
635 279142220 1475236454 187.668 -97.5514 177.091 -139.214 118.809 -88.3924 16.9291 -219.051 101.186 31.5251 240.308 -12.4874 
643 147974531 911628712 -99.0979 278.357 250.555 -518.308 -180.408 2.52391 -353.696 236.961 399.609 -263.71 -139.012 -146.531 
703 1073805193 2012915030 -42.3757 -325.004 -128.496 193.499 394.487 -148.039 82.8996 -114.394 209.764 68.224 183.877 -486.3 
703 1839905841 2127910521 138.06 -41.6058 -111.437 -252.167 -120.946 -43.8821 58.887 82.4745 -100.628 -172.995 -245.026 -54.6914 
723 547036734 1960394916 -314.439 332.143 8.03647 -299.418 91.935 -105.267 -408.05 297.178 -33.8961 -205.808 126.9 -63.3344 
731 856869898 530917621 -186.343 91.7219 214.455 334.901 -342.893 -98.2286 -180.58 -164.756 -212.26 329.138 -86.4147 328.487 
743 1885660705 1075943780 7.73566 -251.321 -270.682 603.054 -216.937 270.443 311.692 116.623 197.45 299.098 -584.881 -197.689 
803 225597600 2026341523 -105.891 73.8733 458.178 298.165 -48.7983 -122.818 72.5714 -101.919 507.254 119.703 126.994 -171.895 
803 173725089 29526070 -231.318 -239.94 634.938 278.496 -71.4186 248.132 -136.55 45.2178 650.049 183.727 -356.577 233.021 
811 1562368928 462474639 -265.869 163.454 47.6837 -70.5855 -51.2222 293.352 -301.674 -57.8322 243.671 -34.7806 170.064 97.3644 
815 215431599 487730294 161.776 309.841 -393.027 -330.841 184.059 -192.276 180.979 216.61 -235.365 -350.044 277.29 -349.938 
815 524604285 2002321970 576.263 -269.226 -385.543 537.094 -341.261 -108.605 553.593 -171.944 -302.538 559.765 -438.543 -191.611 
823 903107224 41310189 7.15909 -239.32 -124.131 -174.038 123.5 162.34 21.9555 35.8935 -185.168 -188.835 -151.713 223.376 
823 2104131904 989814816 -184.464 -353.743 -86.5042 36.0691 162.228 -236.446 191.003 17.4458 -195.965 -339.398 -208.961 -126.985 
831 1034116564 1931783468 -262.384 219.835 162.513 518.486 -65.2457 -402.865 58.491 375.427 -518.859 197.611 -220.838 278.507 
843 1015308752 1194383065 26.7134 198.165 -278.744 67.985 -314.007 -243.724 215.87 -239.769 -191.632 -121.171 123.928 -330.836 
843 1285785838 1194383065 306.489 -265.357 -27.6202 -121.171 123.928 -330.836 38.9382 -139.987 135.27 146.379 -1.44221 -493.727 
911 630857885 1619307370 -80.3427 -10.4282 129.74 332.845 -249.809 136.899 -61.4365 -276.778 150.173 313.939 16.5406 116.466 
911 1779376794 422216716 172.567 -379.088 -217.745 -34.3378 116.922 -78.3096 230.158 -241.05 -345.618 -91.9284 -21.1163 49.5629 
911 1779376794 418651436 230.158 -241.05 -345.618 -305.125 242.176 57.6796 219.38 322.601 -112.601 -294.347 -321.475 -175.337 
915 101819904 2009818864 279.043 -440.784 300.067 58.3907 45.7569 -397.034 297.664 194.161 102.525 39.7701 -589.188 -199.492 
923 746834925 1126183891 -64.8521 -200.486 -92.4187 -109.284 -329.719 100.509 -88.3657 -147.018 9.38028 -85.7706 -383.187 -1.28966 
12 100350570 808077894 194.253 0.0968236 252.13 42.4188 331.428 -133.593 65.8892 63.5831 -179.924 170.783 267.941 298.46 
32 516372881 827151509 -84.8314 -44.8503 62.5537 -54.9978 -149.616 -1.7515 -124.348 -66.98 41.447 -15.4812 -127.486 19.3552 
44 222450362 978406928 503.46 96.584 214.663 -40.3018 -706.105 -200.866 516.89 -569.799 362.587 -53.7323 -39.7216 -348.79 
112 1739223838 35316049 86.3165 148.224 -169.612 -17.9085 15.8268 326.971 8.24916 -71.3298 -132.401 60.1588 235.38 289.76 
132 1202148518 893750554 138.392 -486.677 -87.1066 -145.886 -231.773 297.234 -174.633 -467.133 -75.2995 167.139 -251.317 285.427 
204 1605053316 667027509 195.46 -108.934 37.391 277.09 211.709 259.479 181.318 148.573 -16.5932 291.232 -45.7982 313.463 
232 592569447 689112856 -265.871 -171.29 -211.509 48.6901 -17.8359 -274.828 -177.958 -247.884 -185.658 -39.2231 58.7579 -300.679 
412 443756954 1532559055 -125.366 180.562 41.096 54.3685 327.279 -188.303 -92.5718 259.818 -226.317 21.5745 248.023 79.1099 
444 1133386225 1029471914 -41.7873 -14.5161 -247.91 -98.9569 252.212 32.9253 -71.9914 148.061 -301.049 -68.7528 89.6356 86.0645 
444 6155407 1133386225 -243.061 -87.2927 219.773 -71.9914 148.061 -301.049 -89.0497 84.0422 244.686 -226.003 -23.2741 -325.962 
504 312061873 484397958 -216.771 -55.5778 -502.786 -140.673 47.8295 -70.2766 -398.09 47.7995 -296.244 40.6473 -55.5478 -276.819 
504 1884513573 312061873 -215.984 -14.4793 40.6292 -398.09 47.7995 -296.244 -379.29 -163.039 -116.91 -234.784 196.36 -138.705 
524 740091871 1492629779 714.163 221.943 278.605 370.985 -223.899 -40.5606 656.146 -266.963 263.786 429.001 265.007 -25.741 
532 1324349767 70907440 -320.383 -345.218 92.0755 3.60401 229.163 -3.15179 -251.717 8.90913 357.187 -65.0615 -124.964 -268.263 
544 1969294134 58389537 -69.1285 -224.228 -323.877 68.1428 131.978 134.116 -77.5657 118.458 -331.192 76.5799 -210.708 141.431 
612 511963715 12155405 156.025 74.5672 79.077 95.6481 -235.173 124.098 170.127 -7.20412 -32.9405 81.5466 -153.401 236.115 
624 1821152010 1711898979 -430.153 -57.4242 378.147 300.416 175.614 174.053 0.588413 -134.845 -63.7903 -130.325 253.036 615.99 
632 1493462565 2142767435 -213.569 -60.2047 241.317 -134.617 -0.549404 143.349 -240.067 -11.2668 180.94 -108.12 -49.4873 203.727 
644 531828613 1813048878 223.471 -68.8152 26.8932 293.798 -673.353 -164.317 571.031 -310.392 -47.0774 -53.7621 -431.776 -90.3462 
704 1359621226 803527222 -130.508 -300.734 -8.93613 -53.2132 -351.079 -505.539 -64.5947 -180.792 -462.126 -119.126 -471.021 -52.3494 
732 1533816233 435144892 -170.395 236.269 226.428 -61.2038 -268.589 -163.214 -212.59 -324.598 19.1939 -19.0095 292.278 44.021 
804 1968090415 1005879948 465.293 -65.9452 -24.368 -143.362 128.382 -311.917 -59.4621 -18.7505 99.5177 381.394 81.1871 -435.802 
844 2076514294 542874316 378.528 -208.497 -204.625 324.524 84.6901 -392.943 427.052 -16.1744 -451.392 276 -107.632 -146.175 
912 1330869102 752600801 49.9958 89.0436 -175.251 -358.804 -142.685 169.188 -352.775 75.1233 -190.434 43.9669 -128.765 184.371 
924 1699203215 200927426 -17.8635 -48.8943 420.541 500.19 -73.215 -50.2809 399.084 -351.81 70.3126 83.2422 229.701 299.947 
944 1448823204 62769031 -73.5556 -18.8003 -80.3149 -123.079 -133.363 54.2712 -180.506 -68.1396 -53.0789 -16.1284 -84.0235 27.0352 
62 304946919 1914486982 -645.257 270.47 147.482 -241.05 320.422 -336.981 -624.982 437.148 122.057 -261.326 153.744 -311.556 
62 830854984 721715540 -238.491 137.964 86.304 240.211 -27.4199 -237.99 144.303 -197.986 -0.323938 -142.583 308.53 -151.362 
74 1629151617 1806467175 338.321 48.4307 -40.3798 149.415 -169.112 316.166 351.498 -157.763 -39.4721 136.238 37.0826 315.258 
154 1731818625 1412764381 322.656 122.66 -104.155 -128.554 143.077 188.988 36.9346 212.23 292.562 157.167 53.5078 -207.729 
162 953082712 260421600 -90.3444 -223.679 -494.004 381.907 -117.114 -86.4079 27.6898 -33.6863 -550 263.873 -307.107 -30.4124 
162 481279084 86379456 -20.2957 -151.064 -20.5719 7.70639 195.738 -197.581 -1.12087 -172.409 -121.08 -11.4684 217.083 -97.0722 
182 901075979 1047742578 265.107 195.174 256.732 547.519 303.775 -102.323 506.122 89.6148 -62.798 306.504 409.334 217.207 
262 1492965158 708788728 49.6464 302.885 -452.187 -471.249 -56.5152 295.203 -645.745 43.4297 -288.815 224.143 202.94 131.831 
274 227700592 1294201904 -405.609 192.988 162.08 -189.881 -168.673 -147.256 -515.086 76.5134 -122.502 -80.4037 -52.1986 137.326 
282 1732049757 467774190 296.898 220.947 -173.069 -20.2163 271.343 58.1322 302.986 310.037 -146.623 -26.3042 182.252 31.6864 
374 818717323 498149258 6.95863 328.188 -14.9495 -78.3782 -108.856 -76.5963 -176.802 35.6816 112.789 105.383 183.651 -204.334 
394 736012303 35339510 -430.002 173.858 -656.413 -250.238 -94.0878 55.9407 -428.613 219.46 -636.11 -251.627 -139.69 35.6377 
394 1266386113 1511638888 352.263 70.5222 192.285 -174.621 405.827 224.491 375.83 137.87 281.414 -198.189 338.478 135.361 
454 618359087 1032863866 -32.1362 -179.378 339.78 -221.963 -47.8187 197.876 -254.809 -151.516 244.141 0.709902 -75.6815 293.515 
462 1589930455 1361700489 -245.87 -121.119 95.8922 46.6611 -15.5587 134.692 -47.2969 77.9922 95.1203 -151.912 -214.67 135.464 
462 1313786461 297615749 -60.5957 289.498 -183.836 -632.13 94.667 104.964 -433.421 489.535 86.8449 -259.305 -105.37 -165.717 
474 1679472167 300578097 13.5889 53.7113 -299.496 87.8173 292.75 -140.841 -95.4437 179.337 -243.814 196.85 167.125 -196.523 
474 1466570518 251542932 -33.1795 23.771 64.7367 -58.9417 331.488 -252.688 -184.186 55.0938 28.2301 92.0651 300.166 -216.181 
494 1617913438 1800377180 -265.608 -260.246 -99.5382 -486.208 151.106 413.985 -96.7067 -255.368 111.162 -655.109 146.229 203.284 
494 742614540 681232426 -301.497 262.647 -187.109 -47.2713 122.329 68.6081 -115.937 375.946 -40.4193 -232.831 9.02941 -78.0811 
574 1893363591 1412842558 -109.912 -354.406 272.138 174.797 -100.035 46.5776 96.1315 -425.316 82.7941 -31.2459 -29.1246 235.922 
582 1381681100 1355499219 281.557 -71.2213 -122.05 -501.099 144.308 -400.57 226.642 164.964 -27.9043 -446.184 -91.8776 -494.716 
674 1568276753 2013164012 -322.403 114.311 -188.06 122.208 -238.687 -311.061 -129.582 -267.838 -46.6001 -70.6125 143.461 -452.521 
674 908021008 1804156240 -36.9064 -161.747 304.9 -108.906 -257.378 439.296 -1.35855 -155.476 364.79 -144.454 -263.65 379.406 
682 1607796387 831808261 -127.366 67.5339 -20.7439 169.295 215.911 306.711 -4.54504 357.266 227.854 46.4742 -73.8212 58.114 
762 305419597 573579634 -116.023 135.799 83.7136 186.506 -240.432 10.3234 63.1726 -79.7186 -193.987 7.3107 -24.9149 288.024 
774 1274305547 940002956 -380.127 -91.8874 235.227 62.3903 -151.711 -7.15535 -230.341 104.8 203.936 -87.3958 -348.398 24.1357 
862 1497463733 1635853766 216.073 -255.555 81.9207 11.7665 406.124 -148.274 -229.162 61.8235 -156.671 457.001 88.7452 90.3184 
882 1787629168 147693570 335.737 -388.094 282.162 203.191 -390.225 -390.128 -28.2096 -221.174 -30.3609 567.137 -557.146 -77.6051 
882 18899589 376097920 268.746 218.014 -50.9757 -11.302 248.397 -195.978 64.8206 108.88 -197.999 192.623 357.531 -48.954 
894 989827817 1105645529 -444.295 140.696 -152.828 -454.507 177.04 -79.1211 -485.499 166.341 -134.83 -413.302 151.395 -97.119 
954 1389493070 867270049 102.135 -251.745 -10.3045 374.695 -115.237 54.7108 358.21 -283.136 24.9487 118.62 -83.8458 19.4576 
962 1907834399 257802920 -5.72991 304.212 338.894 -177.42 -244.044 -276.072 220.817 -245.055 -29.9944 -403.967 305.224 92.816 
53 1393364431 402559645 213.234 70.3107 96.1016 -163.729 -58.5964 -243.2 117.899 170.617 107.113 -68.3939 -158.902 -254.211 
61 1496466216 700130617 28.6015 259.574 -286.66 2.13426 -57.6487 -377.554 -41.7094 64.0878 -483.039 72.4451 137.838 -181.174 
81 1179075346 277376729 -126.852 -35.9013 13.4184 -165.661 -112.067 267.004 -257.425 -39.9775 206.456 -35.0882 -107.991 73.9664 
85 669782248 982575653 68.4826 220.545 -230.798 -0.0911711 173.453 -384.949 111.186 223.149 -275.326 -42.7942 170.849 -340.421 
93 342697063 1389181480 104.635 448.556 167.136 -163.923 199.237 -58.2082 -116.478 131.844 97.3772 57.1892 515.949 11.5504 
153 993842834 1064100551 -237.264 429.874 -242.367 281.705 -105.131 -286.269 -240.488 354.868 -81.8328 284.929 -30.1251 -446.803 
153 923083806 376954528 -97.8945 118.159 333.143 -151.252 -189.667 -183.669 -420.617 22.6439 85.7951 171.47 -94.1525 63.6788 
161 1241790036 27157662 16.283 312.393 2.47718 506.216 -25.3804 209.204 56.2368 358.904 1.97117 466.263 -71.8915 209.71 
165 760963948 1281053188 435.538 -377.588 -87.5406 -96.0017 99.2237 -15.865 411.624 124.253 -22.3231 -72.0878 -402.617 -81.0824 
173 1595764011 159360870 -4.92353 -187.192 -11.3556 -254.615 -56.1198 119.172 -87.5393 -165.054 196.996 -171.999 -78.2577 -89.1792 
173 1765502817 159360870 393.988 71.9766 -519.624 -171.999 -78.2577 -89.1792 11.2045 241.042 -54.4708 210.784 -247.323 -554.332 
181 366958485 480796647 40.6452 -243.474 28.5234 -367.67 497.876 111.965 227.452 270.174 -16.5147 -554.477 -15.7719 157.003 
181 2106894483 1147886462 -258.488 -135.723 -219.082 -95.116 -195.975 180.653 -181.544 -251.89 -219.468 -172.06 -79.8078 181.039 
185 709771238 530991234 -314.617 456.654 -278.574 360.582 -346.026 -314.07 -399.227 -245.013 -379.418 445.193 355.641 -213.226 
193 2027504798 1625636077 25.0328 91.6752 -607.499 78.3171 -204.825 -9.04012 -90.345 -321.731 -455.743 193.695 208.582 -160.796 
253 176718218 743844971 176.305 413.018 -153.416 -100.802 -295.482 82.3683 173.474 -308.636 36.4648 -97.9718 426.172 -107.513 
265 1206254994 1149884803 -103.196 240.442 159.288 -466.01 -218.404 -77.4237 -373.631 -153.848 294.791 -195.576 175.885 -212.927 
273 1201059405 92283688 -294.762 -252.584 67.2094 238.566 219.012 392.375 -110.046 360.698 292.514 53.8495 -394.27 167.07 
273 14931533 1640156481 474.553 169.285 -17.2018 -32.5912 440.191 -343.407 379.604 541.972 -13.5487 62.3574 67.5043 -347.06 