ITEM: TIMESTEP
0
ITEM: NUMBER OF CELLS
8000
ITEM: BOX BOUNDS rr rr rr
0 10
0 10
0 10
ITEM: CELLS id xc yc g_rho g_vstream[1] g_vstream[2] g_vstream[3] 
1 0.25 0.25 1 0 0 0 
5 2.25 0.25 5 1 0 0 
9 4.25 0.25 1 0 0 0 
13 6.25 0.25 1 0 0 0 
17 8.25 0.25 1 0 0 0 
21 0.25 0.75 1 0 0 0 
25 2.25 0.75 1 0 0 0 
29 4.25 0.75 5 1 0 0 
33 6.25 0.75 5 1 0 0 
37 8.25 0.75 5 1 0 0 
41 0.25 1.25 1 0 0 0 
45 2.25 1.25 1 0 0 0 
49 4.25 1.25 5 1 0 0 
53 6.25 1.25 5 1 0 0 
57 8.25 1.25 5 1 0 0 
61 0.25 1.75 1 0 0 0 
65 2.25 1.75 1 0 0 0 
69 4.25 1.75 5 1 0 0 
73 6.25 1.75 5 1 0 0 
77 8.25 1.75 5 1 0 0 
81 0.25 2.25 1 0 0 0 
85 2.25 2.25 1 0 0 0 
89 4.25 2.25 5 1 0 0 
93 6.25 2.25 5 1 0 0 
97 8.25 2.25 5 1 0 0 
101 0.25 2.75 5 1 0 0 
105 2.25 2.75 5 1 0 0 
109 4.25 2.75 5 1 0 0 
113 6.25 2.75 5 1 0 0 
117 8.25 2.75 5 1 0 0 
121 0.25 3.25 5 1 0 0 
125 2.25 3.25 5 1 0 0 
129 4.25 3.25 5 1 0 0 
133 6.25 3.25 5 1 0 0 
137 8.25 3.25 5 1 0 0 
141 0.25 3.75 5 1 0 0 
145 2.25 3.75 5 1 0 0 
149 4.25 3.75 5 1 0 0 
153 6.25 3.75 5 1 0 0 
157 8.25 3.75 5 1 0 0 
161 0.25 4.25 5 1 0 0 
165 2.25 4.25 5 1 0 0 
169 4.25 4.25 5 1 0 0 
173 6.25 4.25 5 1 0 0 
177 8.25 4.25 5 1 0 0 
181 0.25 4.75 5 1 0 0 
185 2.25 4.75 5 1 0 0 
189 4.25 4.75 5 1 0 0 
193 6.25 4.75 5 1 0 0 
197 8.25 4.75 5 1 0 0 
201 0.25 5.25 5 1 0 0 
205 2.25 5.25 5 1 0 0 
209 4.25 5.25 5 1 0 0 
213 6.25 5.25 5 1 0 0 
217 8.25 5.25 5 1 0 0 
221 0.25 5.75 5 1 0 0 
225 2.25 5.75 1 0 0 0 
229 4.25 5.75 5 1 0 0 
233 6.25 5.75 5 1 0 0 
237 8.25 5.75 5 1 0 0 
241 0.25 6.25 5 1 0 0 
245 2.25 6.25 1 0 0 0 
249 4.25 6.25 5 1 0 0 
253 6.25 6.25 5 1 0 0 
257 8.25 6.25 5 1 0 0 
261 0.25 6.75 5 1 0 0 
265 2.25 6.75 1 0 0 0 
269 4.25 6.75 1 0 0 0 
273 6.25 6.75 5 1 0 0 
277 8.25 6.75 5 1 0 0 
281 0.25 7.25 5 1 0 0 
285 2.25 7.25 1 0 0 0 
289 4.25 7.25 1 0 0 0 
293 6.25 7.25 5 1 0 0 
297 8.25 7.25 5 1 0 0 
301 0.25 7.75 5 1 0 0 
305 2.25 7.75 1 0 0 0 
309 4.25 7.75 1 0 0 0 
313 6.25 7.75 5 1 0 0 
317 8.25 7.75 5 1 0 0 
321 0.25 8.25 5 1 0 0 
325 2.25 8.25 1 0 0 0 
329 4.25 8.25 1 0 0 0 
333 6.25 8.25 5 1 0 0 
337 8.25 8.25 5 1 0 0 
341 0.25 8.75 5 1 0 0 
345 2.25 8.75 1 0 0 0 
349 4.25 8.75 1 0 0 0 
353 6.25 8.75 5 1 0 0 
357 8.25 8.75 5 1 0 0 
361 0.25 9.25 5 1 0 0 
365 2.25 9.25 1 0 0 0 
369 4.25 9.25 1 0 0 0 
373 6.25 9.25 5 1 0 0 
377 8.25 9.25 5 1 0 0 
381 0.25 9.75 5 1 0 0 
385 2.25 9.75 1 0 0 0 
389 4.25 9.75 1 0 0 0 
393 6.25 9.75 1 0 0 0 
397 8.25 9.75 5 1 0 0 
401 0.25 0.25 1 0 0 0 
405 2.25 0.25 5 1 0 0 
409 4.25 0.25 1 0 0 0 
413 6.25 0.25 1 0 0 0 
417 8.25 0.25 1 0 0 0 
421 0.25 0.75 1 0 0 0 
425 2.25 0.75 1 0 0 0 
429 4.25 0.75 5 1 0 0 
433 6.25 0.75 5 1 0 0 
437 8.25 0.75 5 1 0 0 
441 0.25 1.25 1 0 0 0 
445 2.25 1.25 1 0 0 0 
449 4.25 1.25 5 1 0 0 
453 6.25 1.25 5 1 0 0 
457 8.25 1.25 5 1 0 0 
461 0.25 1.75 1 0 0 0 
465 2.25 1.75 5 1 0 0 
469 4.25 1.75 1 0 0 0 
473 6.25 1.75 5 1 0 0 
477 8.25 1.75 5 1 0 0 
481 0.25 2.25 1 0 0 0 
485 2.25 2.25 1 0 0 0 
489 4.25 2.25 1 0 0 0 
493 6.25 2.25 5 1 0 0 
497 8.25 2.25 5 1 0 0 
501 0.25 2.75 5 1 0 0 
505 2.25 2.75 5 1 0 0 
509 4.25 2.75 5 1 0 0 
513 6.25 2.75 5 1 0 0 
517 8.25 2.75 5 1 0 0 
521 0.25 3.25 5 1 0 0 
525 2.25 3.25 5 1 0 0 
529 4.25 3.25 5 1 0 0 
533 6.25 3.25 5 1 0 0 
537 8.25 3.25 5 1 0 0 
541 0.25 3.75 5 1 0 0 
545 2.25 3.75 5 1 0 0 
549 4.25 3.75 5 1 0 0 
553 6.25 3.75 5 1 0 0 
557 8.25 3.75 5 1 0 0 
561 0.25 4.25 5 1 0 0 
565 2.25 4.25 5 1 0 0 
569 4.25 4.25 5 1 0 0 
573 6.25 4.25 5 1 0 0 
577 8.25 4.25 5 1 0 0 
581 0.25 4.75 5 1 0 0 
585 2.25 4.75 1 0 0 0 
589 4.25 4.75 5 1 0 0 
593 6.25 4.75 5 1 0 0 
597 8.25 4.75 5 1 0 0 
601 0.25 5.25 5 1 0 0 
605 2.25 5.25 1 0 0 0 
609 4.25 5.25 5 1 0 0 
613 6.25 5.25 5 1 0 0 
617 8.25 5.25 5 1 0 0 
621 0.25 5.75 5 1 0 0 
625 2.25 5.75 1 0 0 0 
629 4.25 5.75 1 0 0 0 
633 6.25 5.75 5 1 0 0 
637 8.25 5.75 5 1 0 0 
641 0.25 6.25 5 1 0 0 
645 2.25 6.25 1 0 0 0 
649 4.25 6.25 1 0 0 0 
653 6.25 6.25 5 1 0 0 
657 8.25 6.25 5 1 0 0 
661 0.25 6.75 5 1 0 0 
665 2.25 6.75 1 0 0 0 
669 4.25 6.75 1 0 0 0 
673 6.25 6.75 5 1 0 0 
677 8.25 6.75 5 1 0 0 
681 0.25 7.25 5 1 0 0 
685 2.25 7.25 1 0 0 0 
689 4.25 7.25 1 0 0 0 
693 6.25 7.25 5 1 0 0 
697 8.25 7.25 5 1 0 0 
701 0.25 7.75 5 1 0 0 
705 2.25 7.75 1 0 0 0 
709 4.25 7.75 1 0 0 0 
713 6.25 7.75 5 1 0 0 
717 8.25 7.75 5 1 0 0 
721 0.25 8.25 5 1 0 0 
725 2.25 8.25 1 0 0 0 
729 4.25 8.25 1 0 0 0 
733 6.25 8.25 5 1 0 0 
737 8.25 8.25 5 1 0 0 
741 0.25 8.75 5 1 0 0 
745 2.25 8.75 1 0 0 0 
749 4.25 8.75 1 0 0 0 
753 6.25 8.75 1 0 0 0 
757 8.25 8.75 5 1 0 0 
761 0.25 9.25 5 1 0 0 
765 2.25 9.25 1 0 0 0 
769 4.25 9.25 1 0 0 0 
773 6.25 9.25 1 0 0 0 
777 8.25 9.25 5 1 0 0 
781 0.25 9.75 5 1 0 0 
785 2.25 9.75 1 0 0 0 
789 4.25 9.75 1 0 0 0 
793 6.25 9.75 1 0 0 0 
797 8.25 9.75 5 1 0 0 
801 0.25 0.25 1 0 0 0 
805 2.25 0.25 5 1 0 0 
809 4.25 0.25 1 0 0 0 
813 6.25 0.25 1 0 0 0 
817 8.25 0.25 1 0 0 0 
821 0.25 0.75 1 0 0 0 
825 2.25 0.75 5 1 0 0 
829 4.25 0.75 5 1 0 0 
833 6.25 0.75 5 1 0 0 
837 8.25 0.75 5 1 0 0 
841 0.25 1.25 1 0 0 0 
845 2.25 1.25 5 1 0 0 
849 4.25 1.25 1 0 0 0 
853 6.25 1.25 5 1 0 0 
857 8.25 1.25 5 1 0 0 
861 0.25 1.75 1 0 0 0 
865 2.25 1.75 5 1 0 0 
869 4.25 1.75 1 0 0 0 
873 6.25 1.75 5 1 0 0 
877 8.25 1.75 5 1 0 0 
881 0.25 2.25 5 1 0 0 
885 2.25 2.25 5 1 0 0 
889 4.25 2.25 1 0 0 0 
893 6.25 2.25 5 1 0 0 
897 8.25 2.25 5 1 0 0 
901 0.25 2.75 5 1 0 0 
905 2.25 2.75 5 1 0 0 
909 4.25 2.75 5 1 0 0 
913 6.25 2.75 5 1 0 0 
917 8.25 2.75 5 1 0 0 
921 0.25 3.25 5 1 0 0 
925 2.25 3.25 5 1 0 0 
929 4.25 3.25 5 1 0 0 
933 6.25 3.25 5 1 0 0 
937 8.25 3.25 5 1 0 0 
941 0.25 3.75 5 1 0 0 
945 2.25 3.75 5 1 0 0 
949 4.25 3.75 5 1 0 0 
953 6.25 3.75 5 1 0 0 
957 8.25 3.75 5 1 0 0 
961 0.25 4.25 5 1 0 0 
965 2.25 4.25 1 0 0 0 
969 4.25 4.25 5 1 0 0 
973 6.25 4.25 5 1 0 0 
977 8.25 4.25 5 1 0 0 
981 0.25 4.75 5 1 0 0 
985 2.25 4.75 1 0 0 0 
989 4.25 4.75 1 0 0 0 
993 6.25 4.75 5 1 0 0 
997 8.25 4.75 5 1 0 0 
1001 0.25 5.25 5 1 0 0 
1005 2.25 5.25 1 0 0 0 
1009 4.25 5.25 1 0 0 0 
1013 6.25 5.25 5 1 0 0 
1017 8.25 5.25 5 1 0 0 
1021 0.25 5.75 5 1 0 0 
1025 2.25 5.75 1 0 0 0 
1029 4.25 5.75 1 0 0 0 
1033 6.25 5.75 5 1 0 0 
1037 8.25 5.75 5 1 0 0 
1041 0.25 6.25 5 1 0 0 
1045 2.25 6.25 1 0 0 0 
1049 4.25 6.25 1 0 0 0 
1053 6.25 6.25 5 1 0 0 
1057 8.25 6.25 5 1 0 0 
1061 0.25 6.75 5 1 0 0 
1065 2.25 6.75 1 0 0 0 
1069 4.25 6.75 1 0 0 0 
1073 6.25 6.75 5 1 0 0 
1077 8.25 6.75 5 1 0 0 
1081 0.25 7.25 5 1 0 0 
1085 2.25 7.25 1 0 0 0 
1089 4.25 7.25 1 0 0 0 
1093 6.25 7.25 5 1 0 0 
1097 8.25 7.25 5 1 0 0 
1101 0.25 7.75 5 1 0 0 
1105 2.25 7.75 1 0 0 0 
1109 4.25 7.75 1 0 0 0 
1113 6.25 7.75 1 0 0 0 
1117 8.25 7.75 5 1 0 0 
1121 0.25 8.25 5 1 0 0 
1125 2.25 8.25 1 0 0 0 
1129 4.25 8.25 1 0 0 0 
1133 6.25 8.25 1 0 0 0 
1137 8.25 8.25 5 1 0 0 
1141 0.25 8.75 5 1 0 0 
1145 2.25 8.75 1 0 0 0 
1149 4.25 8.75 1 0 0 0 
1153 6.25 8.75 1 0 0 0 
1157 8.25 8.75 5 1 0 0 
1161 0.25 9.25 5 1 0 0 
1165 2.25 9.25 1 0 0 0 
1169 4.25 9.25 1 0 0 0 
1173 6.25 9.25 1 0 0 0 
1177 8.25 9.25 5 1 0 0 
1181 0.25 9.75 5 1 0 0 
1185 2.25 9.75 1 0 0 0 
1189 4.25 9.75 1 0 0 0 
1193 6.25 9.75 1 0 0 0 
1197 8.25 9.75 5 1 0 0 
1201 0.25 0.25 1 0 0 0 
1205 2.25 0.25 5 1 0 0 
1209 4.25 0.25 1 0 0 0 
1213 6.25 0.25 1 0 0 0 
1217 8.25 0.25 1 0 0 0 
1221 0.25 0.75 1 0 0 0 
1225 2.25 0.75 5 1 0 0 
1229 4.25 0.75 1 0 0 0 
1233 6.25 0.75 5 1 0 0 
1237 8.25 0.75 5 1 0 0 
1241 0.25 1.25 1 0 0 0 
1245 2.25 1.25 5 1 0 0 
1249 4.25 1.25 1 0 0 0 
1253 6.25 1.25 5 1 0 0 
1257 8.25 1.25 5 1 0 0 
1261 0.25 1.75 1 0 0 0 
1265 2.25 1.75 5 1 0 0 
1269 4.25 1.75 1 0 0 0 
1273 6.25 1.75 5 1 0 0 
1277 8.25 1.75 5 1 0 0 
1281 0.25 2.25 1 0 0 0 
1285 2.25 2.25 5 1 0 0 
1289 4.25 2.25 1 0 0 0 
1293 6.25 2.25 1 0 0 0 
1297 8.25 2.25 5 1 0 0 
1301 0.25 2.75 5 1 0 0 
1305 2.25 2.75 1 0 0 0 
1309 4.25 2.75 1 0 0 0 
1313 6.25 2.75 5 1 0 0 
1317 8.25 2.75 5 1 0 0 
1321 0.25 3.25 5 1 0 0 
1325 2.25 3.25 1 0 0 0 
1329 4.25 3.25 1 0 0 0 
1333 6.25 3.25 5 1 0 0 
1337 8.25 3.25 5 1 0 0 
1341 0.25 3.75 5 1 0 0 
1345 2.25 3.75 1 0 0 0 
1349 4.25 3.75 1 0 0 0 
1353 6.25 3.75 5 1 0 0 
1357 8.25 3.75 5 1 0 0 
1361 0.25 4.25 5 1 0 0 
1365 2.25 4.25 1 0 0 0 
1369 4.25 4.25 1 0 0 0 
1373 6.25 4.25 5 1 0 0 
1377 8.25 4.25 5 1 0 0 
1381 0.25 4.75 5 1 0 0 
1385 2.25 4.75 1 0 0 0 
1389 4.25 4.75 1 0 0 0 
1393 6.25 4.75 5 1 0 0 
1397 8.25 4.75 5 1 0 0 
1401 0.25 5.25 5 1 0 0 
1405 2.25 5.25 1 0 0 0 
1409 4.25 5.25 1 0 0 0 
1413 6.25 5.25 5 1 0 0 
1417 8.25 5.25 5 1 0 0 
1421 0.25 5.75 5 1 0 0 
1425 2.25 5.75 1 0 0 0 
1429 4.25 5.75 1 0 0 0 
1433 6.25 5.75 5 1 0 0 
1437 8.25 5.75 5 1 0 0 
1441 0.25 6.25 5 1 0 0 
1445 2.25 6.25 1 0 0 0 
1449 4.25 6.25 1 0 0 0 
1453 6.25 6.25 5 1 0 0 
1457 8.25 6.25 5 1 0 0 
1461 0.25 6.75 5 1 0 0 
1465 2.25 6.75 1 0 0 0 
1469 4.25 6.75 1 0 0 0 
1473 6.25 6.75 1 0 0 0 
1477 8.25 6.75 5 1 0 0 
1481 0.25 7.25 5 1 0 0 
1485 2.25 7.25 1 0 0 0 
1489 4.25 7.25 1 0 0 0 
1493 6.25 7.25 1 0 0 0 
1497 8.25 7.25 5 1 0 0 
1501 0.25 7.75 5 1 0 0 
1505 2.25 7.75 1 0 0 0 
1509 4.25 7.75 1 0 0 0 
1513 6.25 7.75 1 0 0 0 
1517 8.25 7.75 5 1 0 0 
1521 0.25 8.25 5 1 0 0 
1525 2.25 8.25 1 0 0 0 
1529 4.25 8.25 1 0 0 0 
1533 6.25 8.25 1 0 0 0 
1537 8.25 8.25 5 1 0 0 
1541 0.25 8.75 5 1 0 0 
1545 2.25 8.75 1 0 0 0 
1549 4.25 8.75 1 0 0 0 
1553 6.25 8.75 1 0 0 0 
1557 8.25 8.75 5 1 0 0 
1561 0.25 9.25 5 1 0 0 
1565 2.25 9.25 1 0 0 0 
1569 4.25 9.25 1 0 0 0 
1573 6.25 9.25 1 0 0 0 
1577 8.25 9.25 5 1 0 0 
1581 0.25 9.75 5 1 0 0 
1585 2.25 9.75 1 0 0 0 
1589 4.25 9.75 1 0 0 0 
1593 6.25 9.75 1 0 0 0 
1597 8.25 9.75 1 0 0 0 
1601 0.25 0.25 1 0 0 0 
1605 2.25 0.25 1 0 0 0 
1609 4.25 0.25 1 0 0 0 
1613 6.25 0.25 1 0 0 0 
1617 8.25 0.25 1 0 0 0 
1621 0.25 0.75 1 0 0 0 
1625 2.25 0.75 1 0 0 0 
1629 4.25 0.75 1 0 0 0 
1633 6.25 0.75 5 1 0 0 
1637 8.25 0.75 5 1 0 0 
1641 0.25 1.25 1 0 0 0 
1645 2.25 1.25 5 1 0 0 
1649 4.25 1.25 1 0 0 0 
1653 6.25 1.25 5 1 0 0 
1657 8.25 1.25 5 1 0 0 
1661 0.25 1.75 1 0 0 0 
1665 2.25 1.75 5 1 0 0 
1669 4.25 1.75 1 0 0 0 
1673 6.25 1.75 1 0 0 0 
1677 8.25 1.75 1 0 0 0 
1681 0.25 2.25 1 0 0 0 
1685 2.25 2.25 1 0 0 0 
1689 4.25 2.25 1 0 0 0 
1693 6.25 2.25 1 0 0 0 
1697 8.25 2.25 1 0 0 0 
1701 0.25 2.75 1 0 0 0 
1705 2.25 2.75 1 0 0 0 
1709 4.25 2.75 1 0 0 0 
1713 6.25 2.75 1 0 0 0 
1717 8.25 2.75 1 0 0 0 
1721 0.25 3.25 1 0 0 0 
1725 2.25 3.25 1 0 0 0 
1729 4.25 3.25 1 0 0 0 
1733 6.25 3.25 1 0 0 0 
1737 8.25 3.25 1 0 0 0 
1741 0.25 3.75 5 1 0 0 
1745 2.25 3.75 1 0 0 0 
1749 4.25 3.75 1 0 0 0 
1753 6.25 3.75 1 0 0 0 
1757 8.25 3.75 5 1 0 0 
1761 0.25 4.25 5 1 0 0 
1765 2.25 4.25 1 0 0 0 
1769 4.25 4.25 1 0 0 0 
1773 6.25 4.25 5 1 0 0 
1777 8.25 4.25 5 1 0 0 
1781 0.25 4.75 5 1 0 0 
1785 2.25 4.75 1 0 0 0 
1789 4.25 4.75 1 0 0 0 
1793 6.25 4.75 5 1 0 0 
1797 8.25 4.75 5 1 0 0 
1801 0.25 5.25 5 1 0 0 
1805 2.25 5.25 1 0 0 0 
1809 4.25 5.25 1 0 0 0 
1813 6.25 5.25 5 1 0 0 
1817 8.25 5.25 5 1 0 0 
1821 0.25 5.75 5 1 0 0 
1825 2.25 5.75 1 0 0 0 
1829 4.25 5.75 1 0 0 0 
1833 6.25 5.75 1 0 0 0 
1837 8.25 5.75 5 1 0 0 
1841 0.25 6.25 5 1 0 0 
1845 2.25 6.25 1 0 0 0 
1849 4.25 6.25 1 0 0 0 
1853 6.25 6.25 1 0 0 0 
1857 8.25 6.25 5 1 0 0 
1861 0.25 6.75 5 1 0 0 
1865 2.25 6.75 1 0 0 0 
1869 4.25 6.75 1 0 0 0 
1873 6.25 6.75 1 0 0 0 
1877 8.25 6.75 5 1 0 0 
1881 0.25 7.25 5 1 0 0 
1885 2.25 7.25 1 0 0 0 
1889 4.25 7.25 1 0 0 0 
1893 6.25 7.25 1 0 0 0 
1897 8.25 7.25 5 1 0 0 
1901 0.25 7.75 5 1 0 0 
1905 2.25 7.75 1 0 0 0 
1909 4.25 7.75 1 0 0 0 
1913 6.25 7.75 1 0 0 0 
1917 8.25 7.75 5 1 0 0 
1921 0.25 8.25 5 1 0 0 
1925 2.25 8.25 1 0 0 0 
1929 4.25 8.25 1 0 0 0 
1933 6.25 8.25 1 0 0 0 
1937 8.25 8.25 5 1 0 0 
1941 0.25 8.75 5 1 0 0 
1945 2.25 8.75 1 0 0 0 
1949 4.25 8.75 1 0 0 0 
1953 6.25 8.75 1 0 0 0 
1957 8.25 8.75 1 0 0 0 
1961 0.25 9.25 5 1 0 0 
1965 2.25 9.25 1 0 0 0 
1969 4.25 9.25 1 0 0 0 
1973 6.25 9.25 1 0 0 0 
1977 8.25 9.25 1 0 0 0 
1981 0.25 9.75 5 1 0 0 
1985 2.25 9.75 1 0 0 0 
1989 4.25 9.75 1 0 0 0 
1993 6.25 9.75 1 0 0 0 
1997 8.25 9.75 1 0 0 0 
2001 0.25 0.25 1 0 0 0 
2005 2.25 0.25 1 0 0 0 
2009 4.25 0.25 1 0 0 0 
2013 6.25 0.25 1 0 0 0 
2017 8.25 0.25 1 0 0 0 
2021 0.25 0.75 1 0 0 0 
2025 2.25 0.75 1 0 0 0 
2029 4.25 0.75 1 0 0 0 
2033 6.25 0.75 1 0 0 0 
2037 8.25 0.75 5 1 0 0 
2041 0.25 1.25 1 0 0 0 
2045 2.25 1.25 1 0 0 0 
2049 4.25 1.25 1 0 0 0 
2053 6.25 1.25 1 0 0 0 
2057 8.25 1.25 1 0 0 0 
2061 0.25 1.75 1 0 0 0 
2065 2.25 1.75 1 0 0 0 
2069 4.25 1.75 1 0 0 0 
2073 6.25 1.75 1 0 0 0 
2077 8.25 1.75 1 0 0 0 
2081 0.25 2.25 1 0 0 0 
2085 2.25 2.25 1 0 0 0 
2089 4.25 2.25 1 0 0 0 
2093 6.25 2.25 1 0 0 0 
2097 8.25 2.25 1 0 0 0 
2101 0.25 2.75 5 1 0 0 
2105 2.25 2.75 1 0 0 0 
2109 4.25 2.75 1 0 0 0 
2113 6.25 2.75 1 0 0 0 
2117 8.25 2.75 1 0 0 0 
2121 0.25 3.25 5 1 0 0 
2125 2.25 3.25 1 0 0 0 
2129 4.25 3.25 1 0 0 0 
2133 6.25 3.25 1 0 0 0 
2137 8.25 3.25 1 0 0 0 
2141 0.25 3.75 5 1 0 0 
2145 2.25 3.75 1 0 0 0 
2149 4.25 3.75 1 0 0 0 
2153 6.25 3.75 1 0 0 0 
2157 8.25 3.75 1 0 0 0 
2161 0.25 4.25 5 1 0 0 
2165 2.25 4.25 1 0 0 0 
2169 4.25 4.25 1 0 0 0 
2173 6.25 4.25 1 0 0 0 
2177 8.25 4.25 1 0 0 0 
2181 0.25 4.75 5 1 0 0 
2185 2.25 4.75 1 0 0 0 
2189 4.25 4.75 1 0 0 0 
2193 6.25 4.75 1 0 0 0 
2197 8.25 4.75 1 0 0 0 
2201 0.25 5.25 5 1 0 0 
2205 2.25 5.25 1 0 0 0 
2209 4.25 5.25 1 0 0 0 
2213 6.25 5.25 1 0 0 0 
2217 8.25 5.25 5 1 0 0 
2221 0.25 5.75 5 1 0 0 
2225 2.25 5.75 5 1 0 0 
2229 4.25 5.75 1 0 0 0 
2233 6.25 5.75 1 0 0 0 
2237 8.25 5.75 5 1 0 0 
2241 0.25 6.25 5 1 0 0 
2245 2.25 6.25 5 1 0 0 
2249 4.25 6.25 1 0 0 0 
2253 6.25 6.25 1 0 0 0 
2257 8.25 6.25 5 1 0 0 
2261 0.25 6.75 5 1 0 0 
2265 2.25 6.75 5 1 0 0 
2269 4.25 6.75 1 0 0 0 
2273 6.25 6.75 1 0 0 0 
2277 8.25 6.75 5 1 0 0 
2281 0.25 7.25 5 1 0 0 
2285 2.25 7.25 5 1 0 0 
2289 4.25 7.25 1 0 0 0 
2293 6.25 7.25 1 0 0 0 
2297 8.25 7.25 5 1 0 0 
2301 0.25 7.75 5 1 0 0 
2305 2.25 7.75 5 1 0 0 
2309 4.25 7.75 1 0 0 0 
2313 6.25 7.75 1 0 0 0 
2317 8.25 7.75 1 0 0 0 
2321 0.25 8.25 5 1 0 0 
2325 2.25 8.25 5 1 0 0 
2329 4.25 8.25 1 0 0 0 
2333 6.25 8.25 1 0 0 0 
2337 8.25 8.25 1 0 0 0 
2341 0.25 8.75 5 1 0 0 
2345 2.25 8.75 5 1 0 0 
2349 4.25 8.75 1 0 0 0 
2353 6.25 8.75 1 0 0 0 
2357 8.25 8.75 1 0 0 0 
2361 0.25 9.25 5 1 0 0 
2365 2.25 9.25 5 1 0 0 
2369 4.25 9.25 1 0 0 0 
2373 6.25 9.25 1 0 0 0 
2377 8.25 9.25 1 0 0 0 
2381 0.25 9.75 5 1 0 0 
2385 2.25 9.75 5 1 0 0 
2389 4.25 9.75 1 0 0 0 
2393 6.25 9.75 1 0 0 0 
2397 8.25 9.75 1 0 0 0 
2401 0.25 0.25 5 1 0 0 
2405 2.25 0.25 1 0 0 0 
2409 4.25 0.25 1 0 0 0 
2413 6.25 0.25 1 0 0 0 
2417 8.25 0.25 1 0 0 0 
2421 0.25 0.75 1 0 0 0 
2425 2.25 0.75 1 0 0 0 
2429 4.25 0.75 1 0 0 0 
2433 6.25 0.75 1 0 0 0 
2437 8.25 0.75 1 0 0 0 
2441 0.25 1.25 1 0 0 0 
2445 2.25 1.25 5 1 0 0 
2449 4.25 1.25 1 0 0 0 
2453 6.25 1.25 1 0 0 0 
2457 8.25 1.25 1 0 0 0 
2461 0.25 1.75 1 0 0 0 
2465 2.25 1.75 5 1 0 0 
2469 4.25 1.75 1 0 0 0 
2473 6.25 1.75 1 0 0 0 
2477 8.25 1.75 1 0 0 0 
2481 0.25 2.25 1 0 0 0 
2485 2.25 2.25 5 1 0 0 
2489 4.25 2.25 1 0 0 0 
2493 6.25 2.25 1 0 0 0 
2497 8.25 2.25 1 0 0 0 
2501 0.25 2.75 1 0 0 0 
2505 2.25 2.75 5 1 0 0 
2509 4.25 2.75 1 0 0 0 
2513 6.25 2.75 1 0 0 0 
2517 8.25 2.75 1 0 0 0 
2521 0.25 3.25 5 1 0 0 
2525 2.25 3.25 5 1 0 0 
2529 4.25 3.25 1 0 0 0 
2533 6.25 3.25 1 0 0 0 
2537 8.25 3.25 1 0 0 0 
2541 0.25 3.75 5 1 0 0 
2545 2.25 3.75 5 1 0 0 
2549 4.25 3.75 1 0 0 0 
2553 6.25 3.75 1 0 0 0 
2557 8.25 3.75 1 0 0 0 
2561 0.25 4.25 5 1 0 0 
2565 2.25 4.25 5 1 0 0 
2569 4.25 4.25 1 0 0 0 
2573 6.25 4.25 1 0 0 0 
2577 8.25 4.25 1 0 0 0 
2581 0.25 4.75 5 1 0 0 
2585 2.25 4.75 5 1 0 0 
2589 4.25 4.75 1 0 0 0 
2593 6.25 4.75 1 0 0 0 
2597 8.25 4.75 1 0 0 0 
2601 0.25 5.25 5 1 0 0 
2605 2.25 5.25 5 1 0 0 
2609 4.25 5.25 1 0 0 0 
2613 6.25 5.25 1 0 0 0 
2617 8.25 5.25 1 0 0 0 
2621 0.25 5.75 5 1 0 0 
2625 2.25 5.75 5 1 0 0 
2629 4.25 5.75 1 0 0 0 
2633 6.25 5.75 1 0 0 0 
2637 8.25 5.75 1 0 0 0 
2641 0.25 6.25 5 1 0 0 
2645 2.25 6.25 5 1 0 0 
2649 4.25 6.25 1 0 0 0 
2653 6.25 6.25 1 0 0 0 
2657 8.25 6.25 1 0 0 0 
2661 0.25 6.75 5 1 0 0 
2665 2.25 6.75 5 1 0 0 
2669 4.25 6.75 1 0 0 0 
2673 6.25 6.75 1 0 0 0 
2677 8.25 6.75 1 0 0 0 
2681 0.25 7.25 5 1 0 0 
2685 2.25 7.25 5 1 0 0 
2689 4.25 7.25 1 0 0 0 
2693 6.25 7.25 1 0 0 0 
2697 8.25 7.25 1 0 0 0 
2701 0.25 7.75 5 1 0 0 
2705 2.25 7.75 5 1 0 0 
2709 4.25 7.75 1 0 0 0 
2713 6.25 7.75 1 0 0 0 
2717 8.25 7.75 1 0 0 0 
2721 0.25 8.25 5 1 0 0 
2725 2.25 8.25 5 1 0 0 
2729 4.25 8.25 1 0 0 0 
2733 6.25 8.25 1 0 0 0 
2737 8.25 8.25 1 0 0 0 
2741 0.25 8.75 5 1 0 0 
2745 2.25 8.75 5 1 0 0 
2749 4.25 8.75 1 0 0 0 
2753 6.25 8.75 1 0 0 0 
2757 8.25 8.75 1 0 0 0 
2761 0.25 9.25 5 1 0 0 
2765 2.25 9.25 5 1 0 0 
2769 4.25 9.25 1 0 0 0 
2773 6.25 9.25 1 0 0 0 
2777 8.25 9.25 1 0 0 0 
2781 0.25 9.75 5 1 0 0 
2785 2.25 9.75 5 1 0 0 
2789 4.25 9.75 1 0 0 0 
2793 6.25 9.75 1 0 0 0 
2797 8.25 9.75 1 0 0 0 
2801 0.25 0.25 5 1 0 0 
2805 2.25 0.25 5 1 0 0 
2809 4.25 0.25 1 0 0 0 
2813 6.25 0.25 1 0 0 0 
2817 8.25 0.25 1 0 0 0 
2821 0.25 0.75 1 0 0 0 
2825 2.25 0.75 5 1 0 0 
2829 4.25 0.75 1 0 0 0 
2833 6.25 0.75 1 0 0 0 
2837 8.25 0.75 1 0 0 0 
2841 0.25 1.25 1 0 0 0 
2845 2.25 1.25 5 1 0 0 
2849 4.25 1.25 1 0 0 0 
2853 6.25 1.25 1 0 0 0 
2857 8.25 1.25 1 0 0 0 
2861 0.25 1.75 1 0 0 0 
2865 2.25 1.75 5 1 0 0 
2869 4.25 1.75 1 0 0 0 
2873 6.25 1.75 1 0 0 0 
2877 8.25 1.75 1 0 0 0 
2881 0.25 2.25 1 0 0 0 
2885 2.25 2.25 5 1 0 0 
2889 4.25 2.25 1 0 0 0 
2893 6.25 2.25 1 0 0 0 
2897 8.25 2.25 1 0 0 0 
2901 0.25 2.75 1 0 0 0 
2905 2.25 2.75 5 1 0 0 
2909 4.25 2.75 1 0 0 0 
2913 6.25 2.75 1 0 0 0 
2917 8.25 2.75 1 0 0 0 
2921 0.25 3.25 5 1 0 0 
2925 2.25 3.25 5 1 0 0 
2929 4.25 3.25 1 0 0 0 
2933 6.25 3.25 1 0 0 0 
2937 8.25 3.25 1 0 0 0 
2941 0.25 3.75 5 1 0 0 
2945 2.25 3.75 5 1 0 0 
2949 4.25 3.75 1 0 0 0 
2953 6.25 3.75 1 0 0 0 
2957 8.25 3.75 1 0 0 0 
2961 0.25 4.25 5 1 0 0 
2965 2.25 4.25 5 1 0 0 
2969 4.25 4.25 1 0 0 0 
2973 6.25 4.25 1 0 0 0 
2977 8.25 4.25 1 0 0 0 
2981 0.25 4.75 5 1 0 0 
2985 2.25 4.75 5 1 0 0 
2989 4.25 4.75 1 0 0 0 
2993 6.25 4.75 1 0 0 0 
2997 8.25 4.75 1 0 0 0 
3001 0.25 5.25 5 1 0 0 
3005 2.25 5.25 5 1 0 0 
3009 4.25 5.25 1 0 0 0 
3013 6.25 5.25 1 0 0 0 
3017 8.25 5.25 1 0 0 0 
3021 0.25 5.75 5 1 0 0 
3025 2.25 5.75 5 1 0 0 
3029 4.25 5.75 1 0 0 0 
3033 6.25 5.75 1 0 0 0 
3037 8.25 5.75 1 0 0 0 
3041 0.25 6.25 5 1 0 0 
3045 2.25 6.25 5 1 0 0 
3049 4.25 6.25 1 0 0 0 
3053 6.25 6.25 1 0 0 0 
3057 8.25 6.25 1 0 0 0 
3061 0.25 6.75 5 1 0 0 
3065 2.25 6.75 5 1 0 0 
3069 4.25 6.75 1 0 0 0 
3073 6.25 6.75 1 0 0 0 
3077 8.25 6.75 1 0 0 0 
3081 0.25 7.25 5 1 0 0 
3085 2.25 7.25 5 1 0 0 
3089 4.25 7.25 1 0 0 0 
3093 6.25 7.25 1 0 0 0 
3097 8.25 7.25 1 0 0 0 
3101 0.25 7.75 5 1 0 0 
3105 2.25 7.75 5 1 0 0 
3109 4.25 7.75 1 0 0 0 
3113 6.25 7.75 1 0 0 0 
3117 8.25 7.75 1 0 0 0 
3121 0.25 8.25 5 1 0 0 
3125 2.25 8.25 5 1 0 0 
3129 4.25 8.25 1 0 0 0 
3133 6.25 8.25 1 0 0 0 
3137 8.25 8.25 1 0 0 0 
3141 0.25 8.75 5 1 0 0 
3145 2.25 8.75 5 1 0 0 
3149 4.25 8.75 1 0 0 0 
3153 6.25 8.75 1 0 0 0 
3157 8.25 8.75 1 0 0 0 
3161 0.25 9.25 5 1 0 0 
3165 2.25 9.25 5 1 0 0 
3169 4.25 9.25 1 0 0 0 
3173 6.25 9.25 1 0 0 0 
3177 8.25 9.25 1 0 0 0 
3181 0.25 9.75 5 1 0 0 
3185 2.25 9.75 5 1 0 0 
3189 4.25 9.75 1 0 0 0 
3193 6.25 9.75 1 0 0 0 
3197 8.25 9.75 1 0 0 0 
3201 0.25 0.25 1 0 0 0 
3205 2.25 0.25 5 1 0 0 
3209 4.25 0.25 5 1 0 0 
3213 6.25 0.25 1 0 0 0 
3217 8.25 0.25 1 0 0 0 
3221 0.25 0.75 1 0 0 0 
3225 2.25 0.75 5 1 0 0 
3229 4.25 0.75 1 0 0 0 
3233 6.25 0.75 1 0 0 0 
3237 8.25 0.75 1 0 0 0 
3241 0.25 1.25 1 0 0 0 
3245 2.25 1.25 5 1 0 0 
3249 4.25 1.25 1 0 0 0 
3253 6.25 1.25 1 0 0 0 
3257 8.25 1.25 1 0 0 0 
3261 0.25 1.75 1 0 0 0 
3265 2.25 1.75 5 1 0 0 
3269 4.25 1.75 1 0 0 0 
3273 6.25 1.75 1 0 0 0 
3277 8.25 1.75 1 0 0 0 
3281 0.25 2.25 1 0 0 0 
3285 2.25 2.25 5 1 0 0 
3289 4.25 2.25 1 0 0 0 
3293 6.25 2.25 1 0 0 0 
3297 8.25 2.25 1 0 0 0 
3301 0.25 2.75 1 0 0 0 
3305 2.25 2.75 5 1 0 0 
3309 4.25 2.75 1 0 0 0 
3313 6.25 2.75 1 0 0 0 
3317 8.25 2.75 1 0 0 0 
3321 0.25 3.25 5 1 0 0 
3325 2.25 3.25 5 1 0 0 
3329 4.25 3.25 1 0 0 0 
3333 6.25 3.25 1 0 0 0 
3337 8.25 3.25 1 0 0 0 
3341 0.25 3.75 5 1 0 0 
3345 2.25 3.75 5 1 0 0 
3349 4.25 3.75 1 0 0 0 
3353 6.25 3.75 1 0 0 0 
3357 8.25 3.75 1 0 0 0 
3361 0.25 4.25 5 1 0 0 
3365 2.25 4.25 5 1 0 0 
3369 4.25 4.25 1 0 0 0 
3373 6.25 4.25 1 0 0 0 
3377 8.25 4.25 1 0 0 0 
3381 0.25 4.75 5 1 0 0 
3385 2.25 4.75 5 1 0 0 
3389 4.25 4.75 1 0 0 0 
3393 6.25 4.75 1 0 0 0 
3397 8.25 4.75 1 0 0 0 
3401 0.25 5.25 5 1 0 0 
3405 2.25 5.25 5 1 0 0 
3409 4.25 5.25 1 0 0 0 
3413 6.25 5.25 1 0 0 0 
3417 8.25 5.25 1 0 0 0 
3421 0.25 5.75 5 1 0 0 
3425 2.25 5.75 5 1 0 0 
3429 4.25 5.75 1 0 0 0 
3433 6.25 5.75 1 0 0 0 
3437 8.25 5.75 1 0 0 0 
3441 0.25 6.25 5 1 0 0 
3445 2.25 6.25 5 1 0 0 
3449 4.25 6.25 1 0 0 0 
3453 6.25 6.25 1 0 0 0 
3457 8.25 6.25 1 0 0 0 
3461 0.25 6.75 5 1 0 0 
3465 2.25 6.75 5 1 0 0 
3469 4.25 6.75 1 0 0 0 
3473 6.25 6.75 1 0 0 0 
3477 8.25 6.75 1 0 0 0 
3481 0.25 7.25 5 1 0 0 
3485 2.25 7.25 5 1 0 0 
3489 4.25 7.25 1 0 0 0 
3493 6.25 7.25 1 0 0 0 
3497 8.25 7.25 1 0 0 0 
3501 0.25 7.75 5 1 0 0 
3505 2.25 7.75 5 1 0 0 
3509 4.25 7.75 1 0 0 0 
3513 6.25 7.75 1 0 0 0 
3517 8.25 7.75 1 0 0 0 
3521 0.25 8.25 5 1 0 0 
3525 2.25 8.25 5 1 0 0 
3529 4.25 8.25 1 0 0 0 
3533 6.25 8.25 1 0 0 0 
3537 8.25 8.25 1 0 0 0 
3541 0.25 8.75 5 1 0 0 
3545 2.25 8.75 5 1 0 0 
3549 4.25 8.75 1 0 0 0 
3553 6.25 8.75 1 0 0 0 
3557 8.25 8.75 1 0 0 0 
3561 0.25 9.25 5 1 0 0 
3565 2.25 9.25 5 1 0 0 
3569 4.25 9.25 1 0 0 0 
3573 6.25 9.25 1 0 0 0 
3577 8.25 9.25 1 0 0 0 
3581 0.25 9.75 5 1 0 0 
3585 2.25 9.75 5 1 0 0 
3589 4.25 9.75 1 0 0 0 
3593 6.25 9.75 1 0 0 0 
3597 8.25 9.75 1 0 0 0 
3601 0.25 0.25 1 0 0 0 
3605 2.25 0.25 5 1 0 0 
3609 4.25 0.25 5 1 0 0 
3613 6.25 0.25 1 0 0 0 
3617 8.25 0.25 1 0 0 0 
3621 0.25 0.75 1 0 0 0 
3625 2.25 0.75 5 1 0 0 
3629 4.25 0.75 1 0 0 0 
3633 6.25 0.75 1 0 0 0 
3637 8.25 0.75 1 0 0 0 
3641 0.25 1.25 1 0 0 0 
3645 2.25 1.25 5 1 0 0 
3649 4.25 1.25 1 0 0 0 
3653 6.25 1.25 1 0 0 0 
3657 8.25 1.25 1 0 0 0 
3661 0.25 1.75 1 0 0 0 
3665 2.25 1.75 5 1 0 0 
3669 4.25 1.75 1 0 0 0 
3673 6.25 1.75 1 0 0 0 
3677 8.25 1.75 1 0 0 0 
3681 0.25 2.25 1 0 0 0 
3685 2.25 2.25 5 1 0 0 
3689 4.25 2.25 1 0 0 0 
3693 6.25 2.25 1 0 0 0 
3697 8.25 2.25 1 0 0 0 
3701 0.25 2.75 5 1 0 0 
3705 2.25 2.75 5 1 0 0 
3709 4.25 2.75 5 1 0 0 
3713 6.25 2.75 1 0 0 0 
3717 8.25 2.75 1 0 0 0 
3721 0.25 3.25 5 1 0 0 
3725 2.25 3.25 5 1 0 0 
3729 4.25 3.25 1 0 0 0 
3733 6.25 3.25 1 0 0 0 
3737 8.25 3.25 1 0 0 0 
3741 0.25 3.75 5 1 0 0 
3745 2.25 3.75 5 1 0 0 
3749 4.25 3.75 1 0 0 0 
3753 6.25 3.75 1 0 0 0 
3757 8.25 3.75 1 0 0 0 
3761 0.25 4.25 5 1 0 0 
3765 2.25 4.25 5 1 0 0 
3769 4.25 4.25 1 0 0 0 
3773 6.25 4.25 1 0 0 0 
3777 8.25 4.25 1 0 0 0 
3781 0.25 4.75 5 1 0 0 
3785 2.25 4.75 5 1 0 0 
3789 4.25 4.75 1 0 0 0 
3793 6.25 4.75 1 0 0 0 
3797 8.25 4.75 1 0 0 0 
3801 0.25 5.25 5 1 0 0 
3805 2.25 5.25 5 1 0 0 
3809 4.25 5.25 5 1 0 0 
3813 6.25 5.25 1 0 0 0 
3817 8.25 5.25 1 0 0 0 
3821 0.25 5.75 5 1 0 0 
3825 2.25 5.75 5 1 0 0 
3829 4.25 5.75 5 1 0 0 
3833 6.25 5.75 1 0 0 0 
3837 8.25 5.75 1 0 0 0 
3841 0.25 6.25 5 1 0 0 
3845 2.25 6.25 5 1 0 0 
3849 4.25 6.25 5 1 0 0 
3853 6.25 6.25 1 0 0 0 
3857 8.25 6.25 1 0 0 0 
3861 0.25 6.75 5 1 0 0 
3865 2.25 6.75 5 1 0 0 
3869 4.25 6.75 5 1 0 0 
3873 6.25 6.75 1 0 0 0 
3877 8.25 6.75 1 0 0 0 
3881 0.25 7.25 5 1 0 0 
3885 2.25 7.25 5 1 0 0 
3889 4.25 7.25 5 1 0 0 
3893 6.25 7.25 1 0 0 0 
3897 8.25 7.25 1 0 0 0 
3901 0.25 7.75 5 1 0 0 
3905 2.25 7.75 5 1 0 0 
3909 4.25 7.75 5 1 0 0 
3913 6.25 7.75 1 0 0 0 
3917 8.25 7.75 1 0 0 0 
3921 0.25 8.25 5 1 0 0 
3925 2.25 8.25 5 1 0 0 
3929 4.25 8.25 5 1 0 0 
3933 6.25 8.25 1 0 0 0 
3937 8.25 8.25 1 0 0 0 
3941 0.25 8.75 5 1 0 0 
3945 2.25 8.75 5 1 0 0 
3949 4.25 8.75 5 1 0 0 
3953 6.25 8.75 1 0 0 0 
3957 8.25 8.75 1 0 0 0 
3961 0.25 9.25 5 1 0 0 
3965 2.25 9.25 5 1 0 0 
3969 4.25 9.25 5 1 0 0 
3973 6.25 9.25 1 0 0 0 
3977 8.25 9.25 1 0 0 0 
3981 0.25 9.75 5 1 0 0 
3985 2.25 9.75 5 1 0 0 
3989 4.25 9.75 5 1 0 0 
3993 6.25 9.75 1 0 0 0 
3997 8.25 9.75 1 0 0 0 
4001 0.25 0.25 1 0 0 0 
4005 2.25 0.25 5 1 0 0 
4009 4.25 0.25 5 1 0 0 
4013 6.25 0.25 1 0 0 0 
4017 8.25 0.25 1 0 0 0 
4021 0.25 0.75 1 0 0 0 
4025 2.25 0.75 5 1 0 0 
4029 4.25 0.75 1 0 0 0 
4033 6.25 0.75 1 0 0 0 
4037 8.25 0.75 1 0 0 0 
4041 0.25 1.25 1 0 0 0 
4045 2.25 1.25 5 1 0 0 
4049 4.25 1.25 1 0 0 0 
4053 6.25 1.25 1 0 0 0 
4057 8.25 1.25 1 0 0 0 
4061 0.25 1.75 1 0 0 0 
4065 2.25 1.75 5 1 0 0 
4069 4.25 1.75 1 0 0 0 
4073 6.25 1.75 1 0 0 0 
4077 8.25 1.75 1 0 0 0 
4081 0.25 2.25 1 0 0 0 
4085 2.25 2.25 5 1 0 0 
4089 4.25 2.25 5 1 0 0 
4093 6.25 2.25 1 0 0 0 
4097 8.25 2.25 1 0 0 0 
4101 0.25 2.75 5 1 0 0 
4105 2.25 2.75 5 1 0 0 
4109 4.25 2.75 5 1 0 0 
4113 6.25 2.75 1 0 0 0 
4117 8.25 2.75 1 0 0 0 
4121 0.25 3.25 5 1 0 0 
4125 2.25 3.25 5 1 0 0 
4129 4.25 3.25 5 1 0 0 
4133 6.25 3.25 1 0 0 0 
4137 8.25 3.25 1 0 0 0 
4141 0.25 3.75 5 1 0 0 
4145 2.25 3.75 5 1 0 0 
4149 4.25 3.75 1 0 0 0 
4153 6.25 3.75 1 0 0 0 
4157 8.25 3.75 1 0 0 0 
4161 0.25 4.25 5 1 0 0 
4165 2.25 4.25 5 1 0 0 
4169 4.25 4.25 1 0 0 0 
4173 6.25 4.25 1 0 0 0 
4177 8.25 4.25 1 0 0 0 
4181 0.25 4.75 5 1 0 0 
4185 2.25 4.75 5 1 0 0 
4189 4.25 4.75 5 1 0 0 
4193 6.25 4.75 1 0 0 0 
4197 8.25 4.75 1 0 0 0 
4201 0.25 5.25 5 1 0 0 
4205 2.25 5.25 5 1 0 0 
4209 4.25 5.25 5 1 0 0 
4213 6.25 5.25 1 0 0 0 
4217 8.25 5.25 1 0 0 0 
4221 0.25 5.75 5 1 0 0 
4225 2.25 5.75 5 1 0 0 
4229 4.25 5.75 5 1 0 0 
4233 6.25 5.75 1 0 0 0 
4237 8.25 5.75 1 0 0 0 
4241 0.25 6.25 5 1 0 0 
4245 2.25 6.25 5 1 0 0 
4249 4.25 6.25 5 1 0 0 
4253 6.25 6.25 1 0 0 0 
4257 8.25 6.25 1 0 0 0 
4261 0.25 6.75 5 1 0 0 
4265 2.25 6.75 5 1 0 0 
4269 4.25 6.75 5 1 0 0 
4273 6.25 6.75 1 0 0 0 
4277 8.25 6.75 1 0 0 0 
4281 0.25 7.25 5 1 0 0 
4285 2.25 7.25 5 1 0 0 
4289 4.25 7.25 5 1 0 0 
4293 6.25 7.25 1 0 0 0 
4297 8.25 7.25 1 0 0 0 
4301 0.25 7.75 5 1 0 0 
4305 2.25 7.75 5 1 0 0 
4309 4.25 7.75 5 1 0 0 
4313 6.25 7.75 1 0 0 0 
4317 8.25 7.75 1 0 0 0 
4321 0.25 8.25 5 1 0 0 
4325 2.25 8.25 5 1 0 0 
4329 4.25 8.25 5 1 0 0 
4333 6.25 8.25 1 0 0 0 
4337 8.25 8.25 1 0 0 0 
4341 0.25 8.75 5 1 0 0 
4345 2.25 8.75 5 1 0 0 
4349 4.25 8.75 5 1 0 0 
4353 6.25 8.75 1 0 0 0 
4357 8.25 8.75 1 0 0 0 
4361 0.25 9.25 5 1 0 0 
4365 2.25 9.25 5 1 0 0 
4369 4.25 9.25 5 1 0 0 
4373 6.25 9.25 1 0 0 0 
4377 8.25 9.25 1 0 0 0 
4381 0.25 9.75 5 1 0 0 
4385 2.25 9.75 5 1 0 0 
4389 4.25 9.75 5 1 0 0 
4393 6.25 9.75 1 0 0 0 
4397 8.25 9.75 1 0 0 0 
4401 0.25 0.25 1 0 0 0 
4405 2.25 0.25 5 1 0 0 
4409 4.25 0.25 5 1 0 0 
4413 6.25 0.25 1 0 0 0 
4417 8.25 0.25 1 0 0 0 
4421 0.25 0.75 1 0 0 0 
4425 2.25 0.75 5 1 0 0 
4429 4.25 0.75 5 1 0 0 
4433 6.25 0.75 1 0 0 0 
4437 8.25 0.75 1 0 0 0 
4441 0.25 1.25 1 0 0 0 
4445 2.25 1.25 5 1 0 0 
4449 4.25 1.25 1 0 0 0 
4453 6.25 1.25 1 0 0 0 
4457 8.25 1.25 1 0 0 0 
4461 0.25 1.75 1 0 0 0 
4465 2.25 1.75 5 1 0 0 
4469 4.25 1.75 1 0 0 0 
4473 6.25 1.75 1 0 0 0 
4477 8.25 1.75 1 0 0 0 
4481 0.25 2.25 1 0 0 0 
4485 2.25 2.25 5 1 0 0 
4489 4.25 2.25 5 1 0 0 
4493 6.25 2.25 1 0 0 0 
4497 8.25 2.25 1 0 0 0 
4501 0.25 2.75 5 1 0 0 
4505 2.25 2.75 5 1 0 0 
4509 4.25 2.75 5 1 0 0 
4513 6.25 2.75 1 0 0 0 
4517 8.25 2.75 1 0 0 0 
4521 0.25 3.25 5 1 0 0 
4525 2.25 3.25 5 1 0 0 
4529 4.25 3.25 5 1 0 0 
4533 6.25 3.25 1 0 0 0 
4537 8.25 3.25 1 0 0 0 
4541 0.25 3.75 5 1 0 0 
4545 2.25 3.75 5 1 0 0 
4549 4.25 3.75 5 1 0 0 
4553 6.25 3.75 1 0 0 0 
4557 8.25 3.75 1 0 0 0 
4561 0.25 4.25 5 1 0 0 
4565 2.25 4.25 5 1 0 0 
4569 4.25 4.25 5 1 0 0 
4573 6.25 4.25 1 0 0 0 
4577 8.25 4.25 1 0 0 0 
4581 0.25 4.75 5 1 0 0 
4585 2.25 4.75 5 1 0 0 
4589 4.25 4.75 5 1 0 0 
4593 6.25 4.75 1 0 0 0 
4597 8.25 4.75 1 0 0 0 
4601 0.25 5.25 5 1 0 0 
4605 2.25 5.25 5 1 0 0 
4609 4.25 5.25 5 1 0 0 
4613 6.25 5.25 1 0 0 0 
4617 8.25 5.25 1 0 0 0 
4621 0.25 5.75 5 1 0 0 
4625 2.25 5.75 5 1 0 0 
4629 4.25 5.75 5 1 0 0 
4633 6.25 5.75 1 0 0 0 
4637 8.25 5.75 1 0 0 0 
4641 0.25 6.25 5 1 0 0 
4645 2.25 6.25 5 1 0 0 
4649 4.25 6.25 5 1 0 0 
4653 6.25 6.25 1 0 0 0 
4657 8.25 6.25 1 0 0 0 
4661 0.25 6.75 5 1 0 0 
4665 2.25 6.75 5 1 0 0 
4669 4.25 6.75 5 1 0 0 
4673 6.25 6.75 1 0 0 0 
4677 8.25 6.75 1 0 0 0 
4681 0.25 7.25 5 1 0 0 
4685 2.25 7.25 5 1 0 0 
4689 4.25 7.25 5 1 0 0 
4693 6.25 7.25 1 0 0 0 
4697 8.25 7.25 1 0 0 0 
4701 0.25 7.75 5 1 0 0 
4705 2.25 7.75 5 1 0 0 
4709 4.25 7.75 5 1 0 0 
4713 6.25 7.75 1 0 0 0 
4717 8.25 7.75 1 0 0 0 
4721 0.25 8.25 5 1 0 0 
4725 2.25 8.25 5 1 0 0 
4729 4.25 8.25 5 1 0 0 
4733 6.25 8.25 1 0 0 0 
4737 8.25 8.25 1 0 0 0 
4741 0.25 8.75 5 1 0 0 
4745 2.25 8.75 5 1 0 0 
4749 4.25 8.75 5 1 0 0 
4753 6.25 8.75 1 0 0 0 
4757 8.25 8.75 1 0 0 0 
4761 0.25 9.25 5 1 0 0 
4765 2.25 9.25 5 1 0 0 
4769 4.25 9.25 5 1 0 0 
4773 6.25 9.25 1 0 0 0 
4777 8.25 9.25 1 0 0 0 
4781 0.25 9.75 5 1 0 0 
4785 2.25 9.75 5 1 0 0 
4789 4.25 9.75 5 1 0 0 
4793 6.25 9.75 1 0 0 0 
4797 8.25 9.75 1 0 0 0 
4801 0.25 0.25 1 0 0 0 
4805 2.25 0.25 5 1 0 0 
4809 4.25 0.25 5 1 0 0 
4813 6.25 0.25 5 1 0 0 
4817 8.25 0.25 1 0 0 0 
4821 0.25 0.75 1 0 0 0 
4825 2.25 0.75 5 1 0 0 
4829 4.25 0.75 5 1 0 0 
4833 6.25 0.75 1 0 0 0 
4837 8.25 0.75 1 0 0 0 
4841 0.25 1.25 1 0 0 0 
4845 2.25 1.25 5 1 0 0 
4849 4.25 1.25 1 0 0 0 
4853 6.25 1.25 1 0 0 0 
4857 8.25 1.25 1 0 0 0 
4861 0.25 1.75 1 0 0 0 
4865 2.25 1.75 5 1 0 0 
4869 4.25 1.75 5 1 0 0 
4873 6.25 1.75 1 0 0 0 
4877 8.25 1.75 1 0 0 0 
4881 0.25 2.25 1 0 0 0 
4885 2.25 2.25 5 1 0 0 
4889 4.25 2.25 5 1 0 0 
4893 6.25 2.25 1 0 0 0 
4897 8.25 2.25 1 0 0 0 
4901 0.25 2.75 5 1 0 0 
4905 2.25 2.75 5 1 0 0 
4909 4.25 2.75 5 1 0 0 
4913 6.25 2.75 1 0 0 0 
4917 8.25 2.75 1 0 0 0 
4921 0.25 3.25 5 1 0 0 
4925 2.25 3.25 5 1 0 0 
4929 4.25 3.25 5 1 0 0 
4933 6.25 3.25 1 0 0 0 
4937 8.25 3.25 1 0 0 0 
4941 0.25 3.75 5 1 0 0 
4945 2.25 3.75 5 1 0 0 
4949 4.25 3.75 5 1 0 0 
4953 6.25 3.75 1 0 0 0 
4957 8.25 3.75 1 0 0 0 
4961 0.25 4.25 5 1 0 0 
4965 2.25 4.25 5 1 0 0 
4969 4.25 4.25 5 1 0 0 
4973 6.25 4.25 1 0 0 0 
4977 8.25 4.25 1 0 0 0 
4981 0.25 4.75 5 1 0 0 
4985 2.25 4.75 5 1 0 0 
4989 4.25 4.75 5 1 0 0 
4993 6.25 4.75 1 0 0 0 
4997 8.25 4.75 1 0 0 0 
5001 0.25 5.25 5 1 0 0 
5005 2.25 5.25 5 1 0 0 
5009 4.25 5.25 5 1 0 0 
5013 6.25 5.25 1 0 0 0 
5017 8.25 5.25 1 0 0 0 