ITEM: TIMESTEP
0
ITEM: NUMBER OF CELLS
16
ITEM: BOX BOUNDS rr rr pp
0 4
0 4
-0.5 0.5
ITEM: CELLS id xc yc g_rho g_vstream[1] g_vstream[2] g_vstream[3] 
1 0.5 0.5 1 0 0 0 
2 1.5 0.5 1 0 0 0 
3 2.5 0.5 1 0 0 0 
4 3.5 0.5 1 0 0 0 
5 0.5 1.5 1 0 0 0 
6 1.5 1.5 1 0 0 0 
7 2.5 1.5 1 0 0 0 
8 3.5 1.5 1 0 0 0 
9 0.5 2.5 5 1 0 0 
10 1.5 2.5 5 1 0 0 
11 2.5 2.5 5 1 0 0 
12 3.5 2.5 5 1 0 0 
13 0.5 3.5 5 1 0 0 
14 1.5 3.5 5 1 0 0 
15 2.5 3.5 5 1 0 0 
16 3.5 3.5 5 1 0 0 
ITEM: TIMESTEP
10
ITEM: NUMBER OF CELLS
16
ITEM: BOX BOUNDS rr rr pp
0 4
0 4
-0.5 0.5
ITEM: CELLS id xc yc g_rho g_vstream[1] g_vstream[2] g_vstream[3] 
1 0.5 0.5 1 0 0 0 
2 1.5 0.5 1 0 0 0 
3 2.5 0.5 1 0 0 0 
4 3.5 0.5 1 0 0 0 
5 0.5 1.5 1 0 0 0 
6 1.5 1.5 1 0 0 0 
7 2.5 1.5 1 0 0 0 
8 3.5 1.5 1 0 0 0 
9 0.5 2.5 5 1 0 0 
10 1.5 2.5 5 1 0 0 
11 2.5 2.5 5 1 0 0 
12 3.5 2.5 5 1 0 0 
13 0.5 3.5 5 1 0 0 
14 1.5 3.5 5 1 0 0 
15 2.5 3.5 5 1 0 0 
16 3.5 3.5 5 1 0 0 
