ITEM: TIMESTEP
0
ITEM: NUMBER OF SURFS
50
ITEM: BOX BOUNDS oo ro pp
-0.2 0.65
0 0.4
-0.5 0.5
ITEM: SURFS id s_temperature f_1[*] 
1 100 0 
2 100 0 
3 100 0 
4 100 0 
5 100 0 
6 100 0 
7 100 0 
8 100 0 
9 100 0 
10 100 0 
11 100 0 
12 100 0 
13 100 0 
14 100 0 
15 100 0 
16 100 0 
17 100 0 
18 100 0 
19 100 0 
20 100 0 
21 100 0 
22 100 0 
23 100 0 
24 100 0 
25 100 0 
26 100 0 
27 100 0 
28 100 0 
29 100 0 
30 100 0 
31 100 0 
32 100 0 
33 100 0 
34 100 0 
35 100 0 
36 100 0 
37 100 0 
38 100 0 
39 100 0 
40 100 0 
41 100 0 
42 100 0 
43 100 0 
44 100 0 
45 100 0 
46 100 0 
47 100 0 
48 100 0 
49 100 0 
50 100 0 
ITEM: TIMESTEP
250
ITEM: NUMBER OF SURFS
50
ITEM: BOX BOUNDS oo ro pp
-0.2 0.65
0 0.4
-0.5 0.5
ITEM: SURFS id s_temperature f_1[*] 
1 818.354 22888.6 
2 860.253 27948.5 
3 798.52 20749 
4 878.971 30461.6 
5 781.965 19081.1 
6 778.139 18710.4 
7 810.646 22038.4 
8 807.741 21724.2 
9 749.479 16102.5 
10 804.562 21384.2 
11 760.251 17048.4 
12 670.791 10332.5 
13 791.943 20073.8 
14 771.788 18107 
15 687.325 11389.4 
16 626.005 7837.29 
17 622.114 7644.23 
18 686.177 11313.5 
19 658.699 9607.32 
20 600.589 6639.92 
21 540.366 4351.17 
22 533.714 4140.85 
23 461.735 2319.67 
24 356.541 824.695 
25 335.667 647.873 
26 230.095 143.047 
27 209.96 99.1747 
28 100 0 
29 100 0 
30 100 0 
31 100 0 
32 100 0 
33 100 0 
34 100 0 
35 100 0 
36 100 0 
37 100 0 
38 100 0 
39 100 0 
40 100 0 
41 100 0 
42 100 0 
43 100 0 
44 100 0 
45 100 0 
46 100 0 
47 100 0 
48 100 0 
49 100 0 
50 100 0 
ITEM: TIMESTEP
500
ITEM: NUMBER OF SURFS
50
ITEM: BOX BOUNDS oo ro pp
-0.2 0.65
0 0.4
-0.5 0.5
ITEM: SURFS id s_temperature f_1[*] 
1 764.122 17398.2 
2 734.25 14833.1 
3 743.45 15590.5 
4 741.258 15407.5 
5 739.138 15232 
6 741.483 15426.2 
7 720.096 13722 
8 713.46 13223.1 
9 695.472 11939.1 
10 701.845 12382.8 
11 711.573 13083.7 
12 657.006 9508.93 
13 705.375 12633.8 
14 673.185 10480.7 
15 623.212 7698.37 
16 662.553 9834.14 
17 568.365 5325.54 
18 585.303 5989.33 
19 573.048 5503.24 
20 539.597 4326.44 
21 557.7 4936.92 
22 497.865 3135.45 
23 464.29 2371.43 
24 416.93 1542.08 
25 301.929 424.104 
26 345.911 730.654 
27 326.118 577.239 
28 298.603 405.725 
29 183.993 58.4873 
30 205.856 91.6456 
31 100 0 
32 100 0 
33 190.537 67.2625 
34 100 0 
35 100 0 
36 100 0 
37 100 0 
38 100 0 
39 100 0 
40 100 0 
41 100 0 
42 100 0 
43 100 0 
44 100 0 
45 100 0 
46 100 0 
47 100 0 
48 100 0 
49 100 0 
50 100 0 
ITEM: TIMESTEP
750
ITEM: NUMBER OF SURFS
50
ITEM: BOX BOUNDS oo ro pp
-0.2 0.65
0 0.4
-0.5 0.5
ITEM: SURFS id s_temperature f_1[*] 
1 718.647 13611.8 
2 738.196 15154.5 
3 721.417 13822.9 
4 704.943 12602.9 
5 699.425 12212.9 
6 692.968 11768.1 
7 710.413 12998.6 
8 663.759 9905.97 
9 723.363 13972.6 
10 691.688 11681.4 
11 687.249 11384.4 
12 660.359 9704.52 
13 643.103 8729.26 
14 625.061 7790.12 
15 621.957 7636.52 
16 590.437 6202.23 
17 594.264 6364.63 
18 578.942 5733.16 
19 530.884 4053.7 
20 557.246 4920.87 
21 517.736 3666.81 
22 542.869 4432.36 
23 470.497 2500.82 
24 477.016 2642.32 
25 422.046 1619.17 
26 447.852 2053.01 
27 337.653 663.341 
28 319.108 529.183 
29 243.632 179.802 
30 155.968 30.199 
31 309.53 468.452 
32 100 0 
33 182.549 56.6719 
34 100 0 
35 100 0 
36 100 0 
37 100 0 
38 100 0 
39 100 0 
40 100 0 
41 100 0 
42 100 0 
43 100 0 
44 100 0 
45 100 0 
46 100 0 
47 100 0 
48 100 0 
49 100 0 
50 100 0 
ITEM: TIMESTEP
1000
ITEM: NUMBER OF SURFS
50
ITEM: BOX BOUNDS oo ro pp
-0.2 0.65
0 0.4
-0.5 0.5
ITEM: SURFS id s_temperature f_1[*] 
1 690.098 11574.4 
2 711.426 13073 
3 708.238 12840.2 
4 699.203 12197.4 
5 694.531 11874.6 
6 694.735 11888.6 
7 663.345 9881.27 
8 678.661 10825.9 
9 720.485 13751.6 
10 654.212 9348.23 
11 650.997 9165.81 
12 629.641 8020.95 
13 631.483 8115.23 
14 635.897 8344.5 
15 603.156 6754.17 
16 586.052 6020.02 
17 614.808 7291.44 
18 576.532 5638.28 
19 541.817 4398.08 
20 517.122 3649.43 
21 521.317 3769.3 
22 418.595 1566.86 
23 459.386 2272.82 
24 395.045 1242.92 
25 427.73 1708.18 
26 386.905 1143.59 
27 365.177 907.547 
28 320.703 539.84 
29 320.283 537.02 
30 302.595 427.86 
31 276.053 296.364 
32 100 0 
33 100 0 
34 205.696 91.3598 
35 100 0 
36 250.857 202.097 
37 100 0 
38 100 0 
39 100 0 
40 100 0 
41 100 0 
42 100 0 
43 100 0 
44 100 0 
45 100 0 
46 100 0 
47 100 0 
48 100 0 
49 100 0 
50 100 0 
ITEM: TIMESTEP
1250
ITEM: NUMBER OF SURFS
50
ITEM: BOX BOUNDS oo ro pp
-0.2 0.65
0 0.4
-0.5 0.5
ITEM: SURFS id s_temperature f_1[*] 
1 698.716 12163.4 
2 739.437 15256.7 
3 670.205 10296.4 
4 728.66 14386.5 
5 714.787 13321.7 
6 686.005 11302.2 
7 688.12 11442.2 
8 672.548 10441.1 
9 661.839 9791.84 
10 659.614 9660.81 
11 689.254 11517.8 
12 677.322 10740.8 
13 641.026 8617.01 
14 598.462 6546.37 
15 612.034 7160.71 
16 575.404 5594.3 
17 562.414 5105.96 
18 535.45 4194.99 
19 550.131 4674.31 
20 552.583 4758.23 
21 497.576 3128.19 
22 486.8 2865.88 
23 494.965 3063.03 
24 417.16 1545.49 
25 423.233 1637.47 
26 430.423 1751.61 
27 346.703 737.371 
28 343.858 713.458 
29 340.802 688.433 
30 323.142 556.449 
31 335.135 643.773 
32 257.406 224.043 
33 131.176 15.1103 
34 152.589 27.6662 
35 100 0 
36 159.632 33.1389 
37 100 0 
38 100 0 
39 100 0 
40 100 0 
41 100 0 
42 100 0 
43 100 0 
44 100 0 
45 100 0 
46 100 0 
47 100 0 
48 100 0 
49 100 0 
50 100 0 
ITEM: TIMESTEP
1500
ITEM: NUMBER OF SURFS
50
ITEM: BOX BOUNDS oo ro pp
-0.2 0.65
0 0.4
-0.5 0.5
ITEM: SURFS id s_temperature f_1[*] 
1 686.965 11365.6 
2 690.306 11588.3 
3 738.143 15150.1 
4 697.507 12079.5 
5 673.668 10510.9 
6 702.012 12394.6 
7 680.897 10969.3 
8 683.701 11151.2 
9 651.605 9200.08 
10 630.279 8053.52 
11 661.154 9751.33 
12 631.903 8136.85 
13 594.325 6367.21 
14 577.95 5693.96 
15 558.64 4970.31 
16 616.14 7354.8 
17 543.152 4441.59 
18 544.455 4484.38 
19 561.113 5058.91 
20 497.138 3117.18 
21 532.171 4093.15 
22 468.656 2461.89 
23 479.402 2695.59 
24 467.465 2436.97 
25 422.543 1626.81 
26 412.386 1475.94 
27 341.824 696.73 
28 359.322 850.728 
29 346.768 737.924 
30 370.147 957.973 
31 247.765 192.317 
32 274.989 291.821 
33 322.931 554.999 
34 225.123 131.08 
35 166.512 39.2312 
36 100 0 
37 266.007 255.522 
38 100 0 
39 100 0 
40 100 0 
41 100 0 
42 100 0 
43 100 0 
44 100 0 
45 100 0 
46 100 0 
47 100 0 
48 100 0 
49 100 0 
50 100 0 
ITEM: TIMESTEP
1750
ITEM: NUMBER OF SURFS
50
ITEM: BOX BOUNDS oo ro pp
-0.2 0.65
0 0.4
-0.5 0.5
ITEM: SURFS id s_temperature f_1[*] 
1 712.973 13187 
2 677.486 10751.1 
3 693.632 11813.3 
4 672.078 10412 
5 668.874 10214.8 
6 689.016 11502 
7 708.612 12867.4 
8 681.448 11004.9 
9 617.696 7429.4 
10 647.126 8949.72 
11 652.109 9228.56 
12 608.765 7008.97 
13 599.027 6571.11 
14 591.142 6231.92 
15 608.813 7011.18 
16 576.057 5619.73 
17 535.431 4194.38 
18 552.024 4739 
19 553.464 4788.64 
20 495.618 3079.24 
21 487.486 2882.06 
22 490.513 2954.31 
23 441.861 1945.34 
24 428.138 1714.7 
25 438.267 1882.82 
26 417.694 1553.41 
27 414.444 1505.63 
28 385.347 1125.28 
29 340.604 686.833 
30 360.131 858.408 
31 229.725 142.13 
32 280.581 316.293 
33 214.575 108.186 
34 87.1171 2.93947 
35 223.921 128.303 
36 100 0 
37 200.894 83.1238 
38 100 0 
39 100 0 
40 100 0 
41 100 0 
42 100 0 
43 100 0 
44 100 0 
45 100 0 
46 100 0 
47 100 0 
48 100 0 
49 100 0 
50 100 0 
ITEM: TIMESTEP
2000
ITEM: NUMBER OF SURFS
50
ITEM: BOX BOUNDS oo ro pp
-0.2 0.65
0 0.4
-0.5 0.5
ITEM: SURFS id s_temperature f_1[*] 
1 670.669 10324.9 
2 709.8 12953.8 
3 711.903 13108 
4 702.411 12422.8 
5 674.068 10535.8 
6 672.078 10412 
7 699.815 12240.2 
8 689.275 11519.2 
9 649.758 9096.23 
10 634.289 8260.43 
11 653.756 9322.19 
12 615.136 7307.01 
13 594.525 6375.81 
14 596.895 6478.07 
15 576.597 5640.84 
16 581.292 5826.82 
17 589.898 6179.61 
18 517.695 3665.63 
19 535.523 4197.28 
20 481.91 2752.43 
21 476.363 2627.88 
22 488.117 2897 
23 433.305 1799 
24 405.982 1386.38 
25 409.439 1434.2 
26 436.791 1857.59 
27 442.928 1964.2 
28 401.744 1329.38 
29 326.019 576.533 
30 235.047 155.767 
31 255.067 216.01 
32 232.069 148.021 
33 269.307 268.44 
34 217.291 113.769 
35 100 -11.6323 
36 245.253 184.635 
37 237.286 161.786 
38 119.859 10.5327 
39 100 0 
40 100 0 
41 183.326 57.643 
42 123.014 11.6862 
43 100 0 
44 140.579 19.9312 
45 100 0 
46 100 0 
47 100 0 
48 100 0 
49 100 0 
50 100 0 
