ITEM: TIMESTEP
0
ITEM: NUMBER OF SURFS
50
ITEM: BOX BOUNDS oo ro pp
-0.2 0.65
0 0.4
-0.5 0.5
ITEM: SURFS id f_1[*] 
1 0 
5 0 
9 0 
13 0 
17 0 
21 0 
25 0 
29 0 
33 0 
37 0 
41 0 
45 0 
49 0 
2 0 
6 0 
10 0 
14 0 
18 0 
22 0 
26 0 
30 0 
34 0 
38 0 
42 0 
46 0 
50 0 
3 0 
7 0 
11 0 
15 0 
19 0 
23 0 
27 0 
31 0 
35 0 
39 0 
43 0 
47 0 
4 0 
8 0 
12 0 
16 0 
20 0 
24 0 
28 0 
32 0 
36 0 
40 0 
44 0 
48 0 
ITEM: TIMESTEP
250
ITEM: NUMBER OF SURFS
50
ITEM: BOX BOUNDS oo ro pp
-0.2 0.65
0 0.4
-0.5 0.5
ITEM: SURFS id f_1[*] 
1 23049.8 
5 26870.7 
9 17216.6 
13 15541.9 
17 6290.48 
21 5025.41 
25 455.35 
29 0 
33 0 
37 0 
41 0 
45 0 
49 0 
2 23702.9 
6 20771.5 
10 20434.3 
14 17072.3 
18 12394.5 
22 2347.04 
26 342.129 
30 0 
34 0 
38 0 
42 0 
46 0 
50 0 
3 25334.5 
7 26630.9 
11 17972.3 
15 12173.6 
19 9494.95 
23 3578.14 
27 0 
31 0 
35 0 
39 0 
43 0 
47 0 
4 19116.5 
8 17516.5 
12 12052.3 
16 11448.3 
20 8820.02 
24 1218.53 
28 0 
32 0 
36 0 
40 0 
44 0 
48 0 
