ITEM: TIMESTEP
0
ITEM: NUMBER OF SURFS
50
ITEM: BOX BOUNDS oo ro pp
-0.2 0.65
0 0.4
-0.5 0.5
ITEM: SURFS id f_1[*] 
1 0 
2 0 
3 0 
4 0 
5 0 
6 0 
7 0 
8 0 
9 0 
10 0 
11 0 
12 0 
13 0 
14 0 
15 0 
16 0 
17 0 
18 0 
19 0 
20 0 
21 0 
22 0 
23 0 
24 0 
25 0 
26 0 
27 0 
28 0 
29 0 
30 0 
31 0 
32 0 
33 0 
34 0 
35 0 
36 0 
37 0 
38 0 
39 0 
40 0 
41 0 
42 0 
43 0 
44 0 
45 0 
46 0 
47 0 
48 0 
49 0 
50 0 
ITEM: TIMESTEP
250
ITEM: NUMBER OF SURFS
50
ITEM: BOX BOUNDS oo ro pp
-0.2 0.65
0 0.4
-0.5 0.5
ITEM: SURFS id f_1[*] 
1 22888.6 
2 27948.5 
3 20749 
4 30461.6 
5 19081.1 
6 18710.4 
7 22038.4 
8 21724.2 
9 16102.5 
10 21384.2 
11 17048.4 
12 10332.5 
13 20073.8 
14 18107 
15 11389.4 
16 7837.29 
17 7644.23 
18 11313.5 
19 9607.32 
20 6639.92 
21 4351.17 
22 4140.85 
23 2319.67 
24 824.695 
25 647.873 
26 143.047 
27 99.1747 
28 0 
29 0 
30 0 
31 0 
32 0 
33 0 
34 0 
35 0 
36 0 
37 0 
38 0 
39 0 
40 0 
41 0 
42 0 
43 0 
44 0 
45 0 
46 0 
47 0 
48 0 
49 0 
50 0 
ITEM: TIMESTEP
500
ITEM: NUMBER OF SURFS
50
ITEM: BOX BOUNDS oo ro pp
-0.2 0.65
0 0.4
-0.5 0.5
ITEM: SURFS id f_1[*] 
1 21154 
2 16819.6 
3 18434.6 
4 18921.9 
5 18314.5 
6 21445.1 
7 19115.1 
8 18606.6 
9 15408.2 
10 18932.9 
11 12904.3 
12 12484.9 
13 14846.3 
14 10320.4 
15 9250.62 
16 9128.04 
17 8243.55 
18 9129.5 
19 6010.7 
20 5050.44 
21 5345.22 
22 4280.18 
23 2757.89 
24 1242.95 
25 1303.56 
26 833.446 
27 763.772 
28 366.806 
29 0 
30 0 
31 101.694 
32 0 
33 0 
34 16.2136 
35 0 
36 0 
37 0 
38 0 
39 0 
40 0 
41 0 
42 0 
43 0 
44 0 
45 0 
46 0 
47 0 
48 0 
49 0 
50 0 
ITEM: TIMESTEP
750
ITEM: NUMBER OF SURFS
50
ITEM: BOX BOUNDS oo ro pp
-0.2 0.65
0 0.4
-0.5 0.5
ITEM: SURFS id f_1[*] 
1 15672.3 
2 16995.6 
3 15005.1 
4 17114.4 
5 15561.2 
6 14832.6 
7 17758 
8 14968 
9 11347.8 
10 12755.7 
11 13070.9 
12 12478.4 
13 11878.8 
14 10144.3 
15 6486.74 
16 6827.92 
17 6545.84 
18 5267.26 
19 4124.65 
20 3688.12 
21 5223.44 
22 3121.88 
23 2297.23 
24 1906.87 
25 1609.89 
26 1667.83 
27 387.698 
28 611.7 
29 405.875 
30 51.3055 
31 29.3392 
32 0 
33 28.1212 
34 0 
35 0 
36 0 
37 0 
38 0 
39 0 
40 0 
41 0 
42 0 
43 0 
44 0 
45 0 
46 0 
47 0 
48 0 
49 0 
50 0 
ITEM: TIMESTEP
1000
ITEM: NUMBER OF SURFS
50
ITEM: BOX BOUNDS oo ro pp
-0.2 0.65
0 0.4
-0.5 0.5
ITEM: SURFS id f_1[*] 
1 17512.2 
2 14890.3 
3 14275.4 
4 13827.8 
5 12556.6 
6 13358.7 
7 12599.4 
8 13324.7 
9 11605.5 
10 11953.5 
11 10845.5 
12 9394.23 
13 10296.8 
14 7446.55 
15 7247.12 
16 6845.06 
17 4711.7 
18 6163.32 
19 6079.08 
20 3391.27 
21 3330.04 
22 3284.34 
23 1543.51 
24 2444.77 
25 2138.57 
26 953.261 
27 705.126 
28 623.549 
29 473.862 
30 652.461 
31 339.547 
32 230.509 
33 60.1477 
34 47.8737 
35 218.379 
36 0 
37 0 
38 0 
39 0 
40 0 
41 0 
42 0 
43 0 
44 0 
45 0 
46 0 
47 0 
48 0 
49 0 
50 0 
ITEM: TIMESTEP
1250
ITEM: NUMBER OF SURFS
50
ITEM: BOX BOUNDS oo ro pp
-0.2 0.65
0 0.4
-0.5 0.5
ITEM: SURFS id f_1[*] 
1 15481.9 
2 13167.3 
3 17419.4 
4 16087.2 
5 11576.2 
6 15060 
7 12864.5 
8 10462.5 
9 10523.2 
10 12946.4 
11 10727.7 
12 9325.55 
13 8685.65 
14 8302.32 
15 6186.19 
16 7425.97 
17 4679.13 
18 5499.53 
19 3966.72 
20 4114.53 
21 2695.14 
22 4119.85 
23 3293.41 
24 2040.79 
25 2268.93 
26 561.664 
27 728.807 
28 545.027 
29 803.669 
30 303.48 
31 158.807 
32 206.798 
33 107.519 
34 0 
35 8.66521 
36 73.5929 
37 63.6934 
38 0 
39 0 
40 0 
41 0 
42 0 
43 0 
44 0 
45 0 
46 0 
47 0 
48 0 
49 0 
50 0 
ITEM: TIMESTEP
1500
ITEM: NUMBER OF SURFS
50
ITEM: BOX BOUNDS oo ro pp
-0.2 0.65
0 0.4
-0.5 0.5
ITEM: SURFS id f_1[*] 
1 14259.2 
2 12393.2 
3 13126.8 
4 12126.8 
5 12390 
6 13569.3 
7 12715.5 
8 10549.4 
9 9697.38 
10 9886.16 
11 11188 
12 8302.51 
13 6593.92 
14 5684.43 
15 5191.88 
16 4201.56 
17 5267.14 
18 4318.33 
19 4431.16 
20 3576.34 
21 3230 
22 1701.37 
23 1870.17 
24 1596.44 
25 1143.25 
26 1243.71 
27 817.492 
28 952.135 
29 430.097 
30 238.526 
31 661.015 
32 481.115 
33 119.886 
34 176.663 
35 0 
36 39.9351 
37 41.3141 
38 0 
39 0 
40 0 
41 0 
42 55.8718 
43 0 
44 0 
45 0 
46 0 
47 0 
48 0 
49 0 
50 0 
ITEM: TIMESTEP
1750
ITEM: NUMBER OF SURFS
50
ITEM: BOX BOUNDS oo ro pp
-0.2 0.65
0 0.4
-0.5 0.5
ITEM: SURFS id f_1[*] 
1 15534 
2 12027.8 
3 12792.3 
4 11717.8 
5 14184.5 
6 12016.2 
7 10263.3 
8 11861.2 
9 13248.4 
10 9721.13 
11 10644.9 
12 9623.64 
13 7369.59 
14 7900.05 
15 5127.37 
16 5857.55 
17 5339.39 
18 5791.52 
19 4297.08 
20 3088 
21 2650.32 
22 3247.98 
23 2756.32 
24 2035.36 
25 2483.51 
26 1545.01 
27 2021.57 
28 805.349 
29 221.634 
30 488.143 
31 764.971 
32 282.388 
33 194.472 
34 145.838 
35 0 
36 66.9308 
37 38.5098 
38 0 
39 0 
40 0 
41 0 
42 0 
43 0 
44 0 
45 0 
46 0 
47 0 
48 0 
49 0 
50 0 
ITEM: TIMESTEP
2000
ITEM: NUMBER OF SURFS
50
ITEM: BOX BOUNDS oo ro pp
-0.2 0.65
0 0.4
-0.5 0.5
ITEM: SURFS id f_1[*] 
1 13150.9 
2 16023.8 
3 15403.9 
4 11525.9 
5 12359.8 
6 11451.8 
7 14532.4 
8 10871 
9 10382.4 
10 9283.99 
11 9333.14 
12 9218.37 
13 8025.55 
14 7640.75 
15 7578.44 
16 5302.19 
17 4914.02 
18 4305.39 
19 4699.69 
20 3728.62 
21 2666.51 
22 3198.87 
23 2949.19 
24 2242.1 
25 928.965 
26 1167.7 
27 1003.85 
28 889.091 
29 836.755 
30 523.078 
31 471.018 
32 493.076 
33 152.864 
34 140.608 
35 135.831 
36 124.041 
37 20.6603 
38 0 
39 15.6477 
40 0 
41 0 
42 0 
43 0 
44 0 
45 0 
46 0 
47 0 
48 0 
49 0 
50 0 
