ITEM: TIMESTEP
0
ITEM: NUMBER OF SURFS
300
ITEM: BOX BOUNDS oo ro ro
-0.2 0.65
0 0.4
0 0.4
ITEM: SURFS id s_temperature f_1[*] 
1 100 0 
5 100 0 
9 100 0 
13 100 0 
17 100 0 
21 100 0 
25 100 0 
29 100 0 
33 100 0 
37 100 0 
41 100 0 
45 100 0 
49 100 0 
53 100 0 
57 100 0 
61 100 0 
65 100 0 
69 100 0 
73 100 0 
77 100 0 
81 100 0 
85 100 0 
89 100 0 
93 100 0 
97 100 0 
101 100 0 
105 100 0 
109 100 0 
113 100 0 
117 100 0 
121 100 0 
125 100 0 
129 100 0 
133 100 0 
137 100 0 
141 100 0 
145 100 0 
149 100 0 
153 100 0 
157 100 0 
161 100 0 
165 100 0 
169 100 0 
173 100 0 
177 100 0 
181 100 0 
185 100 0 
189 100 0 
193 100 0 
197 100 0 
201 100 0 
205 100 0 
209 100 0 
213 100 0 
217 100 0 
221 100 0 
225 100 0 
229 100 0 
233 100 0 
237 100 0 
241 100 0 
245 100 0 
249 100 0 
253 100 0 
257 100 0 
261 100 0 
265 100 0 
269 100 0 
273 100 0 
277 100 0 
281 100 0 
285 100 0 
289 100 0 
293 100 0 
297 100 0 
2 100 0 
6 100 0 
10 100 0 
14 100 0 
18 100 0 
22 100 0 
26 100 0 
30 100 0 
34 100 0 
38 100 0 
42 100 0 
46 100 0 
50 100 0 
54 100 0 
58 100 0 
62 100 0 
66 100 0 
70 100 0 
74 100 0 
78 100 0 
82 100 0 
86 100 0 
90 100 0 
94 100 0 
98 100 0 
102 100 0 
106 100 0 
110 100 0 
114 100 0 
118 100 0 
122 100 0 
126 100 0 
130 100 0 
134 100 0 
138 100 0 
142 100 0 
146 100 0 
150 100 0 
154 100 0 
158 100 0 
162 100 0 
166 100 0 
170 100 0 
174 100 0 
178 100 0 
182 100 0 
186 100 0 
190 100 0 
194 100 0 
198 100 0 
202 100 0 
206 100 0 
210 100 0 
214 100 0 
218 100 0 
222 100 0 
226 100 0 
230 100 0 
234 100 0 
238 100 0 
242 100 0 
246 100 0 
250 100 0 
254 100 0 
258 100 0 
262 100 0 
266 100 0 
270 100 0 
274 100 0 
278 100 0 
282 100 0 
286 100 0 
290 100 0 
294 100 0 
298 100 0 
3 100 0 
7 100 0 
11 100 0 
15 100 0 
19 100 0 
23 100 0 
27 100 0 
31 100 0 
35 100 0 
39 100 0 
43 100 0 
47 100 0 
51 100 0 
55 100 0 
59 100 0 
63 100 0 
67 100 0 
71 100 0 
75 100 0 
79 100 0 
83 100 0 
87 100 0 
91 100 0 
95 100 0 
99 100 0 
103 100 0 
107 100 0 
111 100 0 
115 100 0 
119 100 0 
123 100 0 
127 100 0 
131 100 0 
135 100 0 
139 100 0 
143 100 0 
147 100 0 
151 100 0 
155 100 0 
159 100 0 
163 100 0 
167 100 0 
171 100 0 
175 100 0 
179 100 0 
183 100 0 
187 100 0 
191 100 0 
195 100 0 
199 100 0 
203 100 0 
207 100 0 
211 100 0 
215 100 0 
219 100 0 
223 100 0 
227 100 0 
231 100 0 
235 100 0 
239 100 0 
243 100 0 
247 100 0 
251 100 0 
255 100 0 
259 100 0 
263 100 0 
267 100 0 
271 100 0 
275 100 0 
279 100 0 
283 100 0 
287 100 0 
291 100 0 
295 100 0 
299 100 0 
4 100 0 
8 100 0 
12 100 0 
16 100 0 
20 100 0 
24 100 0 
28 100 0 
32 100 0 
36 100 0 
40 100 0 
44 100 0 
48 100 0 
52 100 0 
56 100 0 
60 100 0 
64 100 0 
68 100 0 
72 100 0 
76 100 0 
80 100 0 
84 100 0 
88 100 0 
92 100 0 
96 100 0 
100 100 0 
104 100 0 
108 100 0 
112 100 0 
116 100 0 
120 100 0 
124 100 0 
128 100 0 
132 100 0 
136 100 0 
140 100 0 
144 100 0 
148 100 0 
152 100 0 
156 100 0 
160 100 0 
164 100 0 
168 100 0 
172 100 0 
176 100 0 
180 100 0 
184 100 0 
188 100 0 
192 100 0 
196 100 0 
200 100 0 
204 100 0 
208 100 0 
212 100 0 
216 100 0 
220 100 0 
224 100 0 
228 100 0 
232 100 0 
236 100 0 
240 100 0 
244 100 0 
248 100 0 
252 100 0 
256 100 0 
260 100 0 
264 100 0 
268 100 0 
272 100 0 
276 100 0 
280 100 0 
284 100 0 
288 100 0 
292 100 0 
296 100 0 
300 100 0 
ITEM: TIMESTEP
500
ITEM: NUMBER OF SURFS
300
ITEM: BOX BOUNDS oo ro ro
-0.2 0.65
0 0.4
0 0.4
ITEM: SURFS id s_temperature f_1[*] 
1 798.598 20757.2 
5 821.922 23290.4 
9 677.51 10752.7 
13 762.042 17209.6 
17 789.242 19801.4 
21 837.469 25103.2 
25 670.021 10285.1 
29 792.222 20102.1 
33 775.064 18416.4 
37 639.492 8534.81 
41 787.898 19666.8 
45 749.18 16076.8 
49 650.291 9126.13 
53 656.275 9466.7 
57 638.974 8507.23 
61 716.945 13483.4 
65 703.336 12488.4 
69 573.241 5510.64 
73 755.678 16641.9 
77 619.762 7529.28 
81 673.405 10494.5 
85 774.98 18408.4 
89 650.833 9156.54 
93 539.01 4307.67 
97 766.235 17591.5 
101 634.282 8260.07 
105 651.664 9203.42 
109 739.422 15255.4 
113 500.499 3202.33 
117 630.663 8073.15 
121 636.817 8392.91 
125 535.077 4183.29 
129 611.644 7142.49 
133 646.455 8912.69 
137 441.265 1934.87 
141 427.125 1698.53 
145 507.962 3397.64 
149 490.13 2945.1 
153 286.617 344.397 
157 427.783 1709.02 
161 100 0 
165 100 0 
169 100 0 
173 100 0 
177 100 0 
181 100 0 
185 100 0 
189 100 0 
193 100 0 
197 100 0 
201 680.01 10912.3 
205 743.003 15553.1 
209 690.801 11621.6 
213 721.858 13856.7 
217 644.587 8810.09 
221 636.244 8362.73 
225 100 -158.726 
229 488.409 2903.95 
233 634.71 8282.4 
237 100 0 
241 341.342 692.812 
245 455.36 2194.19 
249 422.706 1629.32 
253 100 0 
257 100 0 
261 100 0 
265 100 0 
269 100 0 
273 100 0 
277 100 0 
281 100 0 
285 100 0 
289 100 0 
293 100 0 
297 100 0 
2 726.861 14244.9 
6 730.052 14496.7 
10 797.943 20689.1 
14 706.126 12687.7 
18 696.77 12028.5 
22 746.695 15864.5 
26 732.892 14723.6 
30 758.576 16898.6 
34 772.328 18157.7 
38 552.381 4751.27 
42 719.075 13644.3 
46 798.5 20746.9 
50 636.265 8363.88 
54 905.914 34371.8 
58 613.849 7246.03 
62 749.522 16106.2 
66 767.548 17712.4 
70 668.082 10166.5 
74 720.589 13759.6 
78 743.835 15622.9 
82 694.606 11879.8 
86 725.328 14125.1 
90 449.031 2074.72 
94 726.353 14205.1 
98 221.448 122.727 
102 659.368 9646.38 
106 662.495 9830.7 
110 745.847 15792.6 
114 100 -193.55 
118 100 0 
122 492.061 2991.79 
126 550.692 4693.42 
130 443.071 1966.74 
134 602.336 6717.53 
138 381.237 1078.04 
142 518.11 3677.42 
146 533.163 4123.76 
150 100 0 
154 100 0 
158 100 0 
162 100 0 
166 100 0 
170 100 0 
174 100 0 
178 100 0 
182 100 0 
186 100 0 
190 100 0 
194 100 0 
198 100 0 
202 651.235 9179.22 
206 622.629 7669.58 
210 575.681 5605.09 
214 478.194 2668.52 
218 656.919 9503.88 
222 605.554 6862.22 
226 623.178 7696.68 
230 673.89 10524.7 
234 616.638 7378.62 
238 563.078 5130.13 
242 404.456 1365.65 
246 560.428 5034.25 
250 347.825 746.964 
254 100 0 
258 396.749 1264.5 
262 100 0 
266 100 0 
270 517.819 3669.15 
274 100 0 
278 100 0 
282 100 0 
286 100 0 
290 100 0 
294 100 0 
298 100 0 
3 100 0 
7 100 0 
11 100 0 
15 100 0 
19 100 0 
23 100 0 
27 100 0 
31 100 0 
35 100 0 
39 100 0 
43 100 0 
47 100 0 
51 100 0 
55 100 0 
59 100 0 
63 100 0 
67 100 0 
71 100 0 
75 100 0 
79 100 0 
83 100 0 
87 100 0 
91 100 0 
95 100 0 
99 100 0 
103 738.041 15141.8 
107 593.192 6318.79 
111 750.197 16164.3 
115 655.078 9397.82 
119 516.315 3626.71 
123 600.612 6640.96 
127 689.115 11508.6 
131 385.655 1128.88 
135 548.283 4611.85 
139 391.524 1199.2 
143 537.475 4258.8 
147 500.172 3193.99 
151 100 0 
155 276.274 297.314 
159 100 0 
163 100 0 
167 100 0 
171 100 0 
175 100 0 
179 100 0 
183 100 0 
187 100 0 
191 100 0 
195 100 0 
199 100 0 
203 530.542 4043.29 
207 662.709 9843.4 
211 530.096 4029.7 
215 649.836 9100.6 
219 500.446 3200.98 
223 728.816 14398.8 
227 585.431 5994.56 
231 707.318 12773.6 
235 532.162 4092.88 
239 326.38 579.093 
243 432.209 1780.85 
247 387.037 1145.15 
251 100 0 
255 325.386 572.07 
259 100 0 
263 100 0 
267 100 0 
271 100 0 
275 100 0 
279 100 0 
283 100 0 
287 100 0 
291 100 0 
295 100 0 
299 100 0 
4 100 0 
8 100 0 
12 100 0 
16 100 0 
20 100 0 
24 100 0 
28 100 0 
32 100 0 
36 100 0 
40 100 0 
44 100 0 
48 100 0 
52 100 0 
56 100 0 
60 100 0 
64 100 0 
68 100 0 
72 100 0 
76 100 0 
80 100 0 
84 100 0 
88 100 0 
92 100 0 
96 100 0 
100 100 0 
104 444.17 1986.33 
108 734.695 14869 
112 567.824 5305.29 
116 547.472 4584.61 
120 712.48 13150.6 
124 572.872 5496.48 
128 616.298 7362.39 
132 518.31 3683.1 
136 467.04 2428.12 
140 547.971 4601.33 
144 354.738 808.142 
148 198.571 79.3452 
152 100 0 
156 335.048 643.105 
160 100 0 
164 100 0 
168 100 0 
172 100 0 
176 100 0 
180 100 0 
184 100 0 
188 100 0 
192 100 0 
196 100 0 
200 100 0 
204 759.372 16969.6 
208 698.993 12182.7 
212 680.314 10931.8 
216 609.167 7027.5 
220 735.573 14940.2 
224 623.605 7717.8 
228 611.142 7119.08 
232 499.837 3185.43 
236 478.774 2681.49 
240 100 0 
244 402.294 1336.69 
248 467.927 2446.62 
252 100 0 
256 100 0 
260 100 0 
264 100 0 
268 100 0 
272 100 0 
276 100 0 
280 100 0 
284 100 0 
288 100 0 
292 100 0 
296 100 0 
300 100 0 
ITEM: TIMESTEP
1000
ITEM: NUMBER OF SURFS
300
ITEM: BOX BOUNDS oo ro ro
-0.2 0.65
0 0.4
0 0.4
ITEM: SURFS id s_temperature f_1[*] 
1 811.365 22116.7 
5 748.5 16018.5 
9 786.495 19527.1 
13 687.895 11427.3 
17 623.37 7706.15 
21 809.761 21942.3 
25 715.684 13388.8 
29 790.196 19897.3 
33 754.418 16531.1 
37 731.37 14601.7 
41 766.47 17613 
45 741.663 15441.2 
49 653.269 9294.41 
53 688.564 11471.8 
57 736.829 15042.5 
61 658.026 9568.12 
65 766.051 17574.6 
69 708.406 12852.4 
73 633.632 8226.24 
77 528.346 3976.75 
81 648.607 9031.94 
85 652.629 9258.06 
89 675.185 10605.8 
93 684.669 11214.4 
97 663.527 9892.12 
101 743.258 15574.5 
105 743.502 15594.9 
109 663.915 9915.29 
113 555.534 4860.67 
117 641.045 8618.05 
121 666.096 10046.2 
125 471.171 2515.17 
129 607.339 6943.51 
133 381.701 1083.3 
137 498.433 3149.79 
141 352.731 790.001 
145 100 0 
149 432.457 1784.95 
153 360.05 857.637 
157 139.772 19.4775 
161 100 0 
165 100 0 
169 100 0 
173 100 0 
177 100 0 
181 100 0 
185 100 0 
189 100 0 
193 100 0 
197 100 0 
201 643.953 8775.49 
205 551.364 4716.36 
209 401.005 1319.63 
213 713.417 13219.9 
217 593.653 6338.47 
221 606.952 6925.84 
225 510.185 3457.52 
229 611.511 7136.29 
233 465.828 2403.02 
237 400.593 1314.22 
241 382.647 1094.08 
245 414.318 1503.8 
249 458.245 2250.32 
253 244.98 183.813 
257 100 0 
261 100 0 
265 100 0 
269 100 0 
273 100 0 
277 100 0 
281 100 0 
285 100 0 
289 100 0 
293 100 0 
297 100 0 
2 783.04 19186.2 
6 739.644 15273.7 
10 795.114 20397.2 
14 614.951 7298.23 
18 774.424 18355.6 
22 722.56 13910.7 
26 802.065 21119.9 
30 727.254 14275.8 
34 785.893 19467.4 
38 608.097 6978.25 
42 779.86 18876.4 
46 801.66 21077.3 
50 718.71 13616.6 
54 642.799 8712.75 
58 633.364 8212.33 
62 741.819 15454.2 
66 738.675 15193.9 
70 698.348 12137.8 
74 707.365 12777 
78 730.842 14559.5 
82 826.091 23766.5 
86 780.618 18950 
90 681.478 11006.8 
94 671.559 10379.8 
98 532.95 4117.19 
102 498.894 3161.46 
106 618.004 7444.22 
110 370.766 964.396 
114 473.889 2573.72 
118 596.271 6451.02 
122 511.593 3495.86 
126 554.272 4816.66 
130 566.017 5238.09 
134 497.424 3124.36 
138 502.847 3262.85 
142 272.638 281.966 
146 420.529 1596.02 
150 505.782 3339.7 
154 344.825 721.524 
158 449.1 2076 
162 100 0 
166 100 0 
170 100 0 
174 100 0 
178 100 0 
182 100 0 
186 100 0 
190 100 0 
194 100 0 
198 100 0 
202 654.802 9381.97 
206 638.821 8499.08 
210 607.045 6930.07 
214 669.047 10225.4 
218 648.95 9051.07 
222 504.408 3303.56 
226 656.148 9459.38 
230 100 0 
234 520.922 3757.88 
238 344.089 715.381 
242 346.516 735.776 
246 100 0 
250 438.428 1885.58 
254 482.938 2776.01 
258 100 0 
262 361.733 873.789 
266 436.602 1854.37 
270 100 0 
274 100 0 
278 100 0 
282 100 0 
286 100 0 
290 100 0 
294 100 0 
298 100 0 
3 100 0 
7 100 0 
11 100 0 
15 100 0 
19 100 0 
23 100 0 
27 100 0 
31 100 0 
35 100 0 
39 100 0 
43 100 0 
47 100 0 
51 100 0 
55 100 0 
59 100 0 
63 100 0 
67 100 0 
71 100 0 
75 100 0 
79 100 0 
83 100 0 
87 100 0 
91 100 0 
95 100 0 
99 100 0 
103 651.733 9207.34 
107 663.811 9909.04 
111 583.267 5906.4 
115 687.769 11418.9 
119 500.286 3196.89 
123 441.377 1936.83 
127 501.394 3225.31 
131 628.422 7959.03 
135 589.352 6156.78 
139 518.742 3695.38 
143 439.263 1900 
147 100 0 
151 100 0 
155 100 0 
159 351.519 779.203 
163 100 0 
167 100 0 
171 100 0 
175 100 0 
179 100 0 
183 100 0 
187 100 0 
191 100 0 
195 100 0 
199 100 0 
203 644.224 8790.26 
207 717.174 13500.6 
211 572.815 5494.29 
215 689.597 11540.8 
219 741.112 15395.4 
223 611.511 7136.25 
227 579.023 5736.37 
231 484.192 2804.94 
235 477.613 2655.57 
239 375.053 1009.77 
243 100 0 
247 492.096 2992.63 
251 231.311 146.097 
255 100 0 
259 409.468 1434.62 
263 100 0 
267 100 0 
271 100 0 
275 100 0 
279 100 0 
283 100 0 
287 100 0 
291 100 0 
295 100 0 
299 100 0 
4 100 0 
8 100 0 
12 100 0 
16 100 0 
20 100 0 
24 100 0 
28 100 0 
32 100 0 
36 100 0 
40 100 0 
44 100 0 
48 100 0 
52 100 0 
56 100 0 
60 100 0 
64 100 0 
68 100 0 
72 100 0 
76 100 0 
80 100 0 
84 100 0 
88 100 0 
92 100 0 
96 100 0 
100 100 0 
104 747.598 15941.4 
108 342.804 704.753 
112 736.283 14998 
116 552.417 4752.51 
120 100 -101.945 
124 234.5 154.322 
128 460.22 2289.38 
132 595.827 6431.83 
136 625.683 7821.18 
140 100 0 
144 429.718 1740.15 
148 389.317 1172.37 
152 332.905 626.813 
156 100 0 
160 100 0 
164 100 0 
168 100 0 
172 100 0 
176 100 0 
180 100 0 
184 100 0 
188 100 0 
192 100 0 
196 100 0 
200 100 0 
204 673.122 10476.8 
208 676.755 10704.8 
212 551.762 4730.01 
216 654.989 9392.71 
220 572.515 5482.81 
224 509.76 3446 
228 729.044 14416.8 
232 612.556 7185.16 
236 550.989 4703.54 
240 100 0 
244 448.628 2067.29 
248 405.345 1377.69 
252 327.189 584.857 
256 386.395 1137.57 
260 100 0 
264 100 0 
268 100 0 
272 100 0 
276 100 0 
280 100 0 
284 100 0 
288 100 0 
292 100 0 
296 100 0 
300 100 0 
ITEM: TIMESTEP
1500
ITEM: NUMBER OF SURFS
300
ITEM: BOX BOUNDS oo ro ro
-0.2 0.65
0 0.4
0 0.4
ITEM: SURFS id s_temperature f_1[*] 
1 748.389 16009 
5 747.669 15947.4 
9 658.509 9596.22 
13 709.222 12911.7 
17 599.397 6587.36 
21 794.501 20334.4 
25 658.994 9624.55 
29 759.094 16944.8 
33 446.4 2026.52 
37 677.661 10762.3 
41 731.236 14591 
45 736.815 15041.4 
49 825.408 23688.1 
53 668.094 10167.3 
57 705.03 12609.1 
61 791.588 20037.8 
65 767.675 17724.1 
69 576.381 5632.39 
73 686.882 11360.1 
77 445.037 2001.89 
81 724.28 14043.7 
85 491.443 2976.77 
89 614.873 7294.51 
93 732.558 14696.8 
97 482.863 2774.27 
101 620.049 7543.23 
105 758.005 16847.7 
109 592.288 6280.36 
113 688.268 11452.1 
117 674.91 10588.6 
121 625.68 7821.03 
125 651.548 9196.89 
129 325.602 573.595 
133 468.245 2453.28 
137 561.444 5070.86 
141 421.872 1616.51 
145 100 0 
149 207.477 94.5663 
153 100 0 
157 100 0 
161 286.476 343.721 
165 100 0 
169 285.789 340.439 
173 100 0 
177 100 0 
181 100 0 
185 100 0 
189 100 0 
193 100 0 
197 100 0 
201 695.696 11954.5 
205 871.607 29453.5 
209 490.524 2954.58 
213 651.931 9218.52 
217 685.059 11240 
221 488.917 2916.04 
225 606.982 6927.17 
229 100 0 
233 533.186 4124.47 
237 383.182 1100.2 
241 352.748 790.154 
245 487.329 2878.34 
249 409.196 1430.8 
253 367.256 928.389 
257 100 0 
261 100 0 
265 100 0 
269 100 0 
273 100 0 
277 100 0 
281 100 0 
285 100 0 
289 100 0 
293 100 0 
297 100 0 
2 843.592 25845.5 
6 745.363 15751.6 
10 834.799 24784.7 
14 730.224 14510.4 
18 723.469 13980.9 
22 725.396 14130.4 
26 620.97 7588.17 
30 681.518 11009.4 
34 720.477 13751 
38 641.193 8625.99 
42 730.665 14545.5 
46 707.727 12803.2 
50 615.476 7323.19 
54 729.073 14419.1 
58 665.33 10000 
62 558.036 4948.83 
66 758.927 16929.9 
70 692.484 11735.3 
74 603.225 6757.28 
78 714.294 13285.1 
82 716.749 13468.6 
86 726.568 14222 
90 613.761 7241.88 
94 838.482 25224.9 
98 804.447 21371.9 
102 752.68 16379.4 
106 584.41 5952.86 
110 676.547 10691.7 
114 521.154 3764.59 
118 524.393 3859.07 
122 402.171 1335.05 
126 531.648 4077.09 
130 702.07 12398.7 
134 613.251 7217.82 
138 584.133 5941.57 
142 435.913 1842.69 
146 473.899 2573.93 
150 519.596 3719.79 
154 247.649 191.956 
158 261.412 238.318 
162 320.1 535.794 
166 282.906 326.904 
170 100 0 
174 100 0 
178 100 0 
182 100 0 
186 100 0 
190 100 0 
194 100 0 
198 100 0 
202 671.434 10372.1 
206 656.128 9458.19 
210 604.887 6832.03 
214 658.863 9616.87 
218 533.697 4140.32 
222 697.852 12103.4 
226 570.878 5420.34 
230 629.648 8021.33 
234 413.903 1497.78 
238 557.872 4943.02 
242 492.119 2993.2 
246 492.346 2998.72 
250 473.34 2561.81 
254 100 0 
258 100 0 
262 100 0 
266 460.11 2287.19 
270 100 0 
274 100 0 
278 100 0 
282 100 0 
286 100 0 
290 100 0 
294 100 0 
298 100 0 
3 100 0 
7 100 0 
11 100 0 
15 100 0 
19 100 0 
23 100 0 
27 100 0 
31 100 0 
35 100 0 
39 100 0 
43 100 0 
47 100 0 
51 100 0 
55 100 0 
59 100 0 
63 100 0 
67 100 0 
71 100 0 
75 100 0 
79 100 0 
83 100 0 
87 100 0 
91 100 0 
95 100 0 
99 100 0 
103 451.382 2118.51 
107 612.324 7174.32 
111 609.033 7021.29 
115 496.895 3111.09 
119 496.654 3105.06 
123 601.25 6669.2 
127 604.994 6836.88 
131 586.055 6020.15 
135 611.119 7117.97 
139 215.082 109.212 
143 487.535 2883.21 
147 502.884 3263.81 
151 267.686 262.035 
155 253.319 210.147 
159 458.828 2261.79 
163 100 0 
167 412.049 1471.13 
171 100 0 
175 100 0 
179 438.403 1885.16 
183 100 0 
187 100 0 
191 100 0 
195 100 0 
199 100 0 
203 841.213 25555.1 
207 602.363 6718.72 
211 541.738 4395.53 
215 704.037 12538.2 
219 571.786 5454.92 
223 590.326 6197.57 
227 532.671 4108.55 
231 400.391 1311.57 
235 497.92 3136.84 
239 485.678 2839.53 
243 392.483 1210.98 
247 511.902 3504.29 
251 329.658 602.711 
255 100 0 
259 189.123 65.2875 
263 323.191 556.792 
267 100 0 
271 100 0 
275 100 0 
279 100 0 
283 100 0 
287 100 0 
291 100 0 
295 100 0 
299 100 0 
4 100 0 
8 100 0 
12 100 0 
16 100 0 
20 100 0 
24 100 0 
28 100 0 
32 100 0 
36 100 0 
40 100 0 
44 100 0 
48 100 0 
52 100 0 
56 100 0 
60 100 0 
64 100 0 
68 100 0 
72 100 0 
76 100 0 
80 100 0 
84 100 0 
88 100 0 
92 100 0 
96 100 0 
100 100 0 
104 585.064 5979.52 
108 630.965 8088.65 
112 621.071 7593.11 
116 682.91 11099.6 
120 627.211 7897.86 
124 643.522 8752 
128 576.07 5620.24 
132 566.058 5239.59 
136 454.692 2181.35 
140 506.406 3356.22 
144 487.59 2884.51 
148 585.477 5996.42 
152 100 0 
156 361.213 868.773 
160 100 0 
164 100 0 
168 333.886 634.229 
172 100 0 
176 100 0 
180 100 0 
184 100 0 
188 100 0 
192 100 0 
196 100 0 
200 100 0 
204 479.513 2698.1 
208 764.515 17434.1 
212 656.474 9478.18 
216 618.943 7489.56 
220 662.35 9822.12 
224 540.79 4364.85 
228 614.514 7277.49 
232 549.357 4648.06 
236 563.611 5149.59 
240 492.009 2990.52 
244 360.181 858.894 
248 369.852 954.915 
252 100 0 
256 283.803 331.071 
260 497.257 3120.17 
264 100 0 
268 100 0 
272 100 0 
276 100 0 
280 100 0 
284 100 0 
288 100 0 
292 100 0 
296 100 0 
300 100 0 
ITEM: TIMESTEP
2000
ITEM: NUMBER OF SURFS
300
ITEM: BOX BOUNDS oo ro ro
-0.2 0.65
0 0.4
0 0.4
ITEM: SURFS id s_temperature f_1[*] 
1 645.126 8839.62 
5 731.238 14591.1 
9 689.689 11546.9 
13 708.704 12874 
17 642.649 8704.62 
21 657.225 9521.63 
25 669.805 10271.8 
29 713.611 13234.3 
33 683.332 11127.1 
37 714.226 13280 
41 710.189 12982.3 
45 711.114 13050 
49 769.859 17926.6 
53 728.274 14356 
57 786.283 19506.1 
61 599.295 6582.91 
65 586.859 6053.28 
69 761.83 17190.5 
73 658.208 9578.72 
77 602.824 6739.34 
81 578.332 5709.03 
85 686.529 11336.8 
89 658.702 9607.52 
93 529.593 4014.43 
97 546.38 4548.13 
101 746.015 15806.9 
105 673.081 10474.3 
109 582.143 5861.02 
113 551.317 4714.75 
117 501.817 3236.2 
121 603.876 6786.47 
125 594.295 6365.95 
129 629.315 8004.38 
133 470.339 2497.47 
137 522.867 3814.33 
141 100 0 
145 425.812 1677.75 
149 100 0 
153 379.694 1060.69 
157 100 0 
161 348.611 753.735 
165 252.231 206.562 
169 100 0 
173 100 0 
177 100 0 
181 100 0 
185 100 0 
189 100 0 
193 100 0 
197 100 0 
201 822.917 23403.4 
205 711.409 13071.7 
209 605.125 6842.79 
213 622.877 7681.82 
217 516.284 3625.86 
221 484.097 2802.75 
225 643.129 8730.66 
229 576.292 5628.91 
233 532.268 4096.15 
237 385.776 1130.3 
241 267.808 262.51 
245 592.987 6310.06 
249 100 0 
253 231.935 147.679 
257 100 0 
261 100 0 
265 100 0 
269 100 0 
273 100 0 
277 100 0 
281 100 0 
285 100 0 
289 100 0 
293 100 0 
297 100 0 
2 736.414 15008.7 
6 766.469 17613 
10 787.201 19597.3 
14 769.194 17864.8 
18 824.277 23558.4 
22 746.159 15819 
26 697.195 12057.9 
30 732.211 14668.9 
34 803.652 21287.6 
38 531.837 4082.89 
42 658.849 9616.1 
46 703.767 12519 
50 690.311 11588.7 
54 607.408 6946.67 
58 570.845 5419.08 
62 760.207 17044.4 
66 763.601 17350.8 
70 651.972 9220.85 
74 651.123 9172.89 
78 605.641 6866.19 
82 731.401 14604.2 
86 656.409 9474.43 
90 655.359 9413.92 
94 485.313 2831.02 
98 696.572 12014.8 
102 601.906 6698.35 
106 561.815 5084.27 
110 541.174 4377.25 
114 747.29 15915.1 
118 722.055 13871.9 
122 554.845 4836.6 
126 488.733 2911.67 
130 522.349 3799.25 
134 410.642 1451.14 
138 329.549 601.917 
142 386.963 1144.28 
146 474.97 2597.27 
150 100 0 
154 100 0 
158 434.054 1811.47 
162 100 0 
166 100 0 
170 305.673 445.538 
174 100 0 
178 100 0 
182 100 0 
186 100 0 
190 100 0 
194 100 0 
198 100 0 
202 631.22 8101.73 
206 607.403 6946.43 
210 549.163 4641.51 
214 580.752 5805.21 
218 518.953 3701.4 
222 504.319 3301.24 
226 494.15 3042.92 
230 541.355 4383.12 
234 575.317 5590.93 
238 384.863 1119.65 
242 540.326 4349.9 
246 525.975 3905.84 
250 264.921 251.375 
254 100 0 
258 441.909 1946.19 
262 409.391 1433.53 
266 100 0 
270 100 0 
274 100 0 
278 100 0 
282 100 0 
286 100 0 
290 100 0 
294 100 0 
298 100 0 
3 100 0 
7 100 0 
11 100 0 
15 100 0 
19 100 0 
23 100 0 
27 100 0 
31 100 0 
35 100 0 
39 100 0 
43 100 0 
47 100 0 
51 100 0 
55 100 0 
59 100 0 
63 100 0 
67 100 0 
71 100 0 
75 100 0 
79 100 0 
83 100 0 
87 100 0 
91 100 0 
95 100 0 
99 100 0 
103 704.364 12561.5 
107 320.758 540.212 
111 549.361 4648.2 
115 639.644 8542.97 
119 417.683 1553.25 
123 464.393 2373.55 
127 382.122 1088.08 
131 466.128 2409.2 
135 324.977 569.203 
139 100 0 
143 402.755 1342.82 
147 443.434 1973.2 
151 446.77 2033.25 
155 100 0 
159 100 0 
163 100 0 
167 412.763 1481.35 
171 100 0 
175 100 0 
179 100 0 
183 100 0 
187 100 0 
191 100 0 
195 100 0 
199 100 0 
203 540.939 4369.65 
207 628.573 7966.67 
211 559.431 4998.5 
215 414.533 1506.92 
219 676.965 10718.2 
223 545.281 4511.64 
227 569.542 5369.79 
231 584.341 5950.04 
235 535.166 4186.09 
239 559.521 5001.72 
243 365.782 913.571 
247 385.981 1132.71 
251 334.43 638.372 
255 346.465 735.35 
259 100 0 
263 265.204 252.451 
267 312.621 487.445 
271 100 0 
275 100 0 
279 100 0 
283 100 0 
287 100 0 
291 100 0 
295 100 0 
299 100 0 
4 100 0 
8 100 0 
12 100 0 
16 100 0 
20 100 0 
24 100 0 
28 100 0 
32 100 0 
36 100 0 
40 100 0 
44 100 0 
48 100 0 
52 100 0 
56 100 0 
60 100 0 
64 100 0 
68 100 0 
72 100 0 
76 100 0 
80 100 0 
84 100 0 
88 100 0 
92 100 0 
96 100 0 
100 100 0 
104 591.772 6258.54 
108 435.259 1831.66 
112 563.685 5152.29 
116 754.27 16518.1 
120 616.712 7382.15 
124 728.761 14394.5 
128 456.107 2208.62 
132 585.529 5998.58 
136 551.753 4729.68 
140 422.729 1629.69 
144 465.987 2406.29 
148 100 0 
152 395.737 1251.65 
156 477.433 2651.58 
160 100 0 
164 297.786 401.303 
168 100 0 
172 100 0 
176 100 0 
180 439.254 1899.84 
184 100 0 
188 100 0 
192 100 0 
196 100 0 
200 100 0 
204 532.321 4097.79 
208 607.806 6964.88 
212 701.262 12341.7 
216 608.41 6992.63 
220 100 0 
224 483.512 2789.22 
228 629.466 8012.05 
232 568.45 5328.73 
236 100 0 
240 100 0 
244 390.295 1184.21 
248 560.307 5029.89 
252 339.335 676.659 
256 100 0 
260 100 0 
264 338.346 668.802 
268 100 0 
272 100 0 
276 100 0 
280 100 0 
284 100 0 
288 100 0 
292 100 0 
296 100 0 
300 100 0 
