ITEM: TIMESTEP
0
ITEM: NUMBER OF SURFS
50
ITEM: BOX BOUNDS oo ro pp
-0.2 0.65
0 0.4
-0.5 0.5
ITEM: SURFS id f_1[*] 
1 0 
2 0 
3 0 
4 0 
5 0 
6 0 
7 0 
8 0 
9 0 
10 0 
11 0 
12 0 
13 0 
14 0 
15 0 
16 0 
17 0 
18 0 
19 0 
20 0 
21 0 
22 0 
23 0 
24 0 
25 0 
26 0 
27 0 
28 0 
29 0 
30 0 
31 0 
32 0 
33 0 
34 0 
35 0 
36 0 
37 0 
38 0 
39 0 
40 0 
41 0 
42 0 
43 0 
44 0 
45 0 
46 0 
47 0 
48 0 
49 0 
50 0 
ITEM: TIMESTEP
250
ITEM: NUMBER OF SURFS
50
ITEM: BOX BOUNDS oo ro pp
-0.2 0.65
0 0.4
-0.5 0.5
ITEM: SURFS id f_1[*] 
1 22888.6 
2 27948.5 
3 20749 
4 30461.6 
5 19081.1 
6 18710.4 
7 22038.4 
8 21724.2 
9 16102.5 
10 21384.2 
11 17048.4 
12 10332.5 
13 20073.8 
14 18107 
15 11389.4 
16 7837.29 
17 7644.23 
18 11313.5 
19 9607.32 
20 6639.92 
21 4351.17 
22 4140.85 
23 2319.67 
24 824.695 
25 647.873 
26 143.047 
27 99.1747 
28 0 
29 0 
30 0 
31 0 
32 0 
33 0 
34 0 
35 0 
36 0 
37 0 
38 0 
39 0 
40 0 
41 0 
42 0 
43 0 
44 0 
45 0 
46 0 
47 0 
48 0 
49 0 
50 0 
