ITEM: TIMESTEP
0
ITEM: NUMBER OF SURFS
300
ITEM: BOX BOUNDS oo ro ro
-0.2 0.65
0 0.4
0 0.4
ITEM: SURFS id f_1[*] 
1 0 
2 0 
3 0 
4 0 
5 0 
6 0 
7 0 
8 0 
9 0 
10 0 
11 0 
12 0 
13 0 
14 0 
15 0 
16 0 
17 0 
18 0 
19 0 
20 0 
21 0 
22 0 
23 0 
24 0 
25 0 
26 0 
27 0 
28 0 
29 0 
30 0 
31 0 
32 0 
33 0 
34 0 
35 0 
36 0 
37 0 
38 0 
39 0 
40 0 
41 0 
42 0 
43 0 
44 0 
45 0 
46 0 
47 0 
48 0 
49 0 
50 0 
51 0 
52 0 
53 0 
54 0 
55 0 
56 0 
57 0 
58 0 
59 0 
60 0 
61 0 
62 0 
63 0 
64 0 
65 0 
66 0 
67 0 
68 0 
69 0 
70 0 
71 0 
72 0 
73 0 
74 0 
75 0 
76 0 
77 0 
78 0 
79 0 
80 0 
81 0 
82 0 
83 0 
84 0 
85 0 
86 0 
87 0 
88 0 
89 0 
90 0 
91 0 
92 0 
93 0 
94 0 
95 0 
96 0 
97 0 
98 0 
99 0 
100 0 
101 0 
102 0 
103 0 
104 0 
105 0 
106 0 
107 0 
108 0 
109 0 
110 0 
111 0 
112 0 
113 0 
114 0 
115 0 
116 0 
117 0 
118 0 
119 0 
120 0 
121 0 
122 0 
123 0 
124 0 
125 0 
126 0 
127 0 
128 0 
129 0 
130 0 
131 0 
132 0 
133 0 
134 0 
135 0 
136 0 
137 0 
138 0 
139 0 
140 0 
141 0 
142 0 
143 0 
144 0 
145 0 
146 0 
147 0 
148 0 
149 0 
150 0 
151 0 
152 0 
153 0 
154 0 
155 0 
156 0 
157 0 
158 0 
159 0 
160 0 
161 0 
162 0 
163 0 
164 0 
165 0 
166 0 
167 0 
168 0 
169 0 
170 0 
171 0 
172 0 
173 0 
174 0 
175 0 
176 0 
177 0 
178 0 
179 0 
180 0 
181 0 
182 0 
183 0 
184 0 
185 0 
186 0 
187 0 
188 0 
189 0 
190 0 
191 0 
192 0 
193 0 
194 0 
195 0 
196 0 
197 0 
198 0 
199 0 
200 0 
201 0 
202 0 
203 0 
204 0 
205 0 
206 0 
207 0 
208 0 
209 0 
210 0 
211 0 
212 0 
213 0 
214 0 
215 0 
216 0 
217 0 
218 0 
219 0 
220 0 
221 0 
222 0 
223 0 
224 0 
225 0 
226 0 
227 0 
228 0 
229 0 
230 0 
231 0 
232 0 
233 0 
234 0 
235 0 
236 0 
237 0 
238 0 
239 0 
240 0 
241 0 
242 0 
243 0 
244 0 
245 0 
246 0 
247 0 
248 0 
249 0 
250 0 
251 0 
252 0 
253 0 
254 0 
255 0 
256 0 
257 0 
258 0 
259 0 
260 0 
261 0 
262 0 
263 0 
264 0 
265 0 
266 0 
267 0 
268 0 
269 0 
270 0 
271 0 
272 0 
273 0 
274 0 
275 0 
276 0 
277 0 
278 0 
279 0 
280 0 
281 0 
282 0 
283 0 
284 0 
285 0 
286 0 
287 0 
288 0 
289 0 
290 0 
291 0 
292 0 
293 0 
294 0 
295 0 
296 0 
297 0 
298 0 
299 0 
300 0 
ITEM: TIMESTEP
500
ITEM: NUMBER OF SURFS
300
ITEM: BOX BOUNDS oo ro ro
-0.2 0.65
0 0.4
0 0.4
ITEM: SURFS id f_1[*] 
1 20295.6 
2 23338.4 
3 0 
4 0 
5 20029.5 
6 21744.7 
7 0 
8 0 
9 13247 
10 19126.2 
11 0 
12 0 
13 15804.9 
14 7760.03 
15 0 
16 0 
17 10061.2 
18 14463.4 
19 0 
20 0 
21 14885 
22 16887.7 
23 0 
24 0 
25 15681.1 
26 17663.8 
27 0 
28 0 
29 26222.1 
30 17399.7 
31 0 
32 0 
33 24171.2 
34 14385.5 
35 0 
36 0 
37 15235.1 
38 8318.53 
39 0 
40 0 
41 16563 
42 14383.2 
43 0 
44 0 
45 14096.8 
46 22099.4 
47 0 
48 0 
49 17907.4 
50 16434.1 
51 0 
52 0 
53 10814.2 
54 10171.6 
55 0 
56 0 
57 9984.2 
58 20910.3 
59 0 
60 0 
61 13383.7 
62 23277.4 
63 0 
64 0 
65 15552.7 
66 13348.8 
67 0 
68 0 
69 8570.64 
70 10750.8 
71 0 
72 0 
73 23239.9 
74 20404.5 
75 0 
76 0 
77 7339.21 
78 13052.5 
79 0 
80 0 
81 13836.8 
82 16624.7 
83 0 
84 0 
85 8808.45 
86 13121.9 
87 0 
88 0 
89 14538.3 
90 35772.7 
91 0 
92 0 
93 25826.8 
94 9998.02 
95 0 
96 0 
97 12105.1 
98 10723 
99 0 
100 0 
101 16986.6 
102 9335.02 
103 21996.1 
104 12397.4 
105 9519.62 
106 7458.97 
107 15695.1 
108 901.294 
109 13580.3 
110 8372.66 
111 7915.4 
112 10052.3 
113 9742.33 
114 6569.55 
115 9931.34 
116 6239.89 
117 17337.1 
118 12159.8 
119 9563.73 
120 23595.5 
121 9730.56 
122 16821.2 
123 14667.1 
124 3187.4 
125 9014.64 
126 10400.3 
127 13604.2 
128 11281.4 
129 7896.57 
130 2215.69 
131 3049.37 
132 7679.13 
133 5018.92 
134 5576.51 
135 2606.73 
136 4971.34 
137 6286.15 
138 225.968 
139 7819.12 
140 6646.68 
141 5905.64 
142 2109.38 
143 2839.44 
144 2775.57 
145 2573.09 
146 6551.04 
147 1492.98 
148 434.454 
149 3666.54 
150 0 
151 0 
152 402.041 
153 0 
154 617.488 
155 357.029 
156 221.93 
157 0 
158 0 
159 0 
160 1336.36 
161 0 
162 0 
163 0 
164 0 
165 0 
166 0 
167 0 
168 0 
169 0 
170 0 
171 0 
172 0 
173 0 
174 0 
175 0 
176 0 
177 0 
178 0 
179 0 
180 0 
181 0 
182 0 
183 0 
184 0 
185 0 
186 0 
187 0 
188 0 
189 0 
190 0 
191 0 
192 0 
193 0 
194 0 
195 0 
196 0 
197 0 
198 0 
199 0 
200 0 
201 7419.86 
202 19619.4 
203 23643.2 
204 19112.2 
205 10579.6 
206 13128.6 
207 14042.6 
208 26986.8 
209 8635.98 
210 5039.6 
211 13385.8 
212 8905.97 
213 9705.67 
214 7165.49 
215 5982.75 
216 2692.09 
217 4246.63 
218 1912.3 
219 0 
220 5882.07 
221 5252.6 
222 8640.42 
223 8807.82 
224 9438.2 
225 2126.62 
226 16578.5 
227 1664.35 
228 7937.81 
229 1304.15 
230 5901.69 
231 6079.05 
232 5050.96 
233 616.91 
234 12463.9 
235 7325.72 
236 4189.61 
237 2137.55 
238 2840.53 
239 0 
240 6591.27 
241 0 
242 122.755 
243 752.002 
244 1269.45 
245 3255.13 
246 1728.44 
247 3040.89 
248 3086.65 
249 4453.98 
250 0 
251 0 
252 0 
253 0 
254 0 
255 1255.05 
256 1231.2 
257 0 
258 1459.33 
259 0 
260 411.037 
261 0 
262 0 
263 0 
264 0 
265 0 
266 1716.76 
267 0 
268 0 
269 0 
270 0 
271 0 
272 0 
273 0 
274 0 
275 0 
276 0 
277 0 
278 0 
279 0 
280 0 
281 0 
282 0 
283 0 
284 0 
285 0 
286 0 
287 0 
288 0 
289 0 
290 0 
291 0 
292 0 
293 0 
294 0 
295 0 
296 0 
297 0 
298 0 
299 0 
300 0 
ITEM: TIMESTEP
1000
ITEM: NUMBER OF SURFS
300
ITEM: BOX BOUNDS oo ro ro
-0.2 0.65
0 0.4
0 0.4
ITEM: SURFS id f_1[*] 
1 15191.3 
2 17231.8 
3 0 
4 0 
5 18253.2 
6 24689.2 
7 0 
8 0 
9 23276.4 
10 18198.9 
11 0 
12 0 
13 17174.2 
14 16920.5 
15 0 
16 0 
17 8423.92 
18 7628.86 
19 0 
20 0 
21 19421.9 
22 16765.9 
23 0 
24 0 
25 19523.9 
26 15316.8 
27 0 
28 0 
29 12019.1 
30 15258.8 
31 0 
32 0 
33 9637.53 
34 10087.7 
35 0 
36 0 
37 18980.6 
38 8381.26 
39 0 
40 0 
41 17970.9 
42 18189.8 
43 0 
44 0 
45 11599.4 
46 6213.44 
47 0 
48 0 
49 11298.8 
50 19966.1 
51 0 
52 0 
53 14365.9 
54 13725.3 
55 0 
56 0 
57 11401.3 
58 20185.9 
59 0 
60 0 
61 13759.8 
62 10895.5 
63 0 
64 0 
65 11598.8 
66 13966.8 
67 0 
68 0 
69 12664.8 
70 9148.57 
71 0 
72 0 
73 12932.9 
74 7181.47 
75 0 
76 0 
77 4290.67 
78 12245.4 
79 0 
80 0 
81 12313.5 
82 11756.1 
83 0 
84 0 
85 8807.47 
86 18760.2 
87 0 
88 0 
89 17401.1 
90 6185.25 
91 0 
92 0 
93 12798.7 
94 12539.7 
95 0 
96 0 
97 5220.78 
98 4987.34 
99 0 
100 0 
101 18669.4 
102 4199.82 
103 19484.5 
104 6569.67 
105 11316.6 
106 14227.7 
107 11209.9 
108 7606.22 
109 3602.76 
110 8973.43 
111 5276.92 
112 9450.66 
113 4293.04 
114 4341.96 
115 6256.18 
116 2209.63 
117 17037.1 
118 6785.76 
119 17.3642 
120 9260.62 
121 8809.18 
122 9504.95 
123 8708.92 
124 2219.41 
125 7619.55 
126 5733.05 
127 6063.7 
128 3371.04 
129 3574.83 
130 4717.15 
131 3153.68 
132 3263.84 
133 4130.71 
134 5314.65 
135 8699.38 
136 7119.23 
137 0 
138 2414.2 
139 1732.22 
140 7454.51 
141 1042.03 
142 2390.99 
143 76.3439 
144 2618.58 
145 0 
146 2853.94 
147 1312.53 
148 2913.7 
149 312.814 
150 0 
151 0 
152 118.238 
153 210.623 
154 1009.15 
155 578.137 
156 0 
157 0 
158 2118.87 
159 0 
160 0 
161 0 
162 0 
163 0 
164 0 
165 0 
166 0 
167 0 
168 0 
169 0 
170 254.173 
171 0 
172 0 
173 0 
174 0 
175 0 
176 0 
177 0 
178 1981.3 
179 0 
180 0 
181 0 
182 0 
183 0 
184 0 
185 0 
186 0 
187 0 
188 0 
189 0 
190 0 
191 0 
192 0 
193 0 
194 0 
195 0 
196 0 
197 0 
198 0 
199 0 
200 0 
201 14610.2 
202 15247.4 
203 13290.3 
204 2511.27 
205 7477.59 
206 12250 
207 10363.2 
208 17482.1 
209 7064.39 
210 17741.5 
211 9077.69 
212 9030.88 
213 12894.5 
214 10282.2 
215 6141.69 
216 6384.75 
217 1267.04 
218 13126.1 
219 7790.86 
220 3104.69 
221 4592.76 
222 5183.28 
223 6057.45 
224 4700.3 
225 9561.97 
226 4469.39 
227 5406.3 
228 4559.91 
229 6003.9 
230 4018.85 
231 3874.14 
232 6128.46 
233 2470.28 
234 1854.75 
235 1316.99 
236 9747.42 
237 7009.16 
238 7758.44 
239 2352.8 
240 4241.01 
241 0 
242 2380.82 
243 1333.09 
244 4155.96 
245 2509.17 
246 4425.03 
247 0 
248 1307.72 
249 0 
250 3346.62 
251 0 
252 0 
253 1530.21 
254 361.271 
255 330.795 
256 681.507 
257 986.818 
258 0 
259 1376.56 
260 0 
261 0 
262 0 
263 0 
264 0 
265 0 
266 0 
267 0 
268 0 
269 0 
270 0 
271 0 
272 0 
273 0 
274 0 
275 0 
276 0 
277 0 
278 0 
279 0 
280 0 
281 0 
282 0 
283 0 
284 0 
285 0 
286 0 
287 0 
288 0 
289 0 
290 0 
291 0 
292 0 
293 0 
294 0 
295 0 
296 0 
297 0 
298 0 
299 0 
300 0 
ITEM: TIMESTEP
1500
ITEM: NUMBER OF SURFS
300
ITEM: BOX BOUNDS oo ro ro
-0.2 0.65
0 0.4
0 0.4
ITEM: SURFS id f_1[*] 
1 12106.7 
2 17885.1 
3 0 
4 0 
5 11153.5 
6 16907 
7 0 
8 0 
9 8611.5 
10 15288.8 
11 0 
12 0 
13 16865.8 
14 10580.8 
15 0 
16 0 
17 15736.1 
18 19901.4 
19 0 
20 0 
21 18786.6 
22 20385 
23 0 
24 0 
25 11569.8 
26 13008.4 
27 0 
28 0 
29 17807.9 
30 26919.9 
31 0 
32 0 
33 19199.9 
34 10295.6 
35 0 
36 0 
37 21212.7 
38 22172.6 
39 0 
40 0 
41 18322 
42 21248.2 
43 0 
44 0 
45 11798 
46 19551.7 
47 0 
48 0 
49 16322.8 
50 13138.5 
51 0 
52 0 
53 15930.1 
54 16118.5 
55 0 
56 0 
57 12066.3 
58 7030.96 
59 0 
60 0 
61 14235.1 
62 24638.3 
63 0 
64 0 
65 20202.4 
66 11813.1 
67 0 
68 0 
69 16317.1 
70 11812.7 
71 0 
72 0 
73 7012.6 
74 16322.7 
75 0 
76 0 
77 23138.6 
78 6588.77 
79 0 
80 0 
81 12324.5 
82 9512.4 
83 0 
84 0 
85 12789.6 
86 15561.7 
87 0 
88 0 
89 14762.8 
90 9853.42 
91 0 
92 0 
93 20179.7 
94 12539.5 
95 0 
96 0 
97 3802.41 
98 23771.6 
99 0 
100 0 
101 6502.95 
102 13801.7 
103 5263.22 
104 10200.5 
105 12465.3 
106 12774.3 
107 15148.8 
108 16372.9 
109 9023.32 
110 5163.41 
111 10884.8 
112 5094.63 
113 12287.1 
114 4609.42 
115 21329.3 
116 1440.68 
117 10703.8 
118 10154.3 
119 8314.05 
120 5091.28 
121 6223.21 
122 9834.34 
123 4571.09 
124 3586.59 
125 2199.53 
126 5388.89 
127 548.266 
128 1235.36 
129 0 
130 1233.08 
131 6618.69 
132 2036.71 
133 2626.81 
134 3175.74 
135 1447.88 
136 3224.96 
137 2980.93 
138 3549.95 
139 29.9486 
140 6.86971 
141 3756.33 
142 2301.59 
143 1563.23 
144 4614.19 
145 2654.01 
146 1607.75 
147 5159.39 
148 80.7141 
149 2479.5 
150 0 
151 0 
152 383.6 
153 375.642 
154 1583.22 
155 2690.3 
156 811.08 
157 0 
158 0 
159 0 
160 2975.72 
161 0 
162 0 
163 267.223 
164 1954.38 
165 1691.14 
166 262.776 
167 0 
168 0 
169 1434.29 
170 0 
171 0 
172 0 
173 11.7707 
174 0 
175 0 
176 430.019 
177 0 
178 0 
179 0 
180 0 
181 0 
182 936.311 
183 0 
184 0 
185 0 
186 0 
187 0 
188 0 
189 0 
190 0 
191 0 
192 0 
193 0 
194 0 
195 0 
196 0 
197 0 
198 0 
199 0 
200 0 
201 7076.44 
202 23729.5 
203 10820.5 
204 8131.45 
205 19267.9 
206 14545.2 
207 6068.7 
208 15682.6 
209 26557.6 
210 16364.9 
211 7508.15 
212 14030.3 
213 2921.47 
214 6404.06 
215 6523.64 
216 3732.08 
217 8916.24 
218 3472.01 
219 754.093 
220 3377.33 
221 5578.5 
222 4396.38 
223 3882.36 
224 7862.69 
225 10267.7 
226 5938.5 
227 6275.03 
228 8845.87 
229 2430.64 
230 4233.32 
231 5835.76 
232 0 
233 8884.02 
234 4115.85 
235 333.228 
236 1320.2 
237 4598.91 
238 5298.59 
239 7359.52 
240 6410.75 
241 4061.39 
242 1327.68 
243 264.076 
244 4963.54 
245 1134.76 
246 138.832 
247 2434.21 
248 0 
249 0 
250 175.268 
251 0 
252 167.925 
253 385.089 
254 1750.94 
255 345.651 
256 1707.61 
257 806.867 
258 1242.68 
259 135.517 
260 2218.12 
261 0 
262 0 
263 1419.44 
264 359.556 
265 0 
266 0 
267 0 
268 0 
269 0 
270 0 
271 0 
272 0 
273 0 
274 0 
275 0 
276 0 
277 0 
278 995.614 
279 0 
280 0 
281 0 
282 0 
283 0 
284 0 
285 0 
286 0 
287 0 
288 0 
289 0 
290 0 
291 0 
292 0 
293 0 
294 0 
295 0 
296 0 
297 0 
298 0 
299 0 
300 0 
ITEM: TIMESTEP
2000
ITEM: NUMBER OF SURFS
300
ITEM: BOX BOUNDS oo ro ro
-0.2 0.65
0 0.4
0 0.4
ITEM: SURFS id f_1[*] 
1 15153.5 
2 22036.3 
3 0 
4 0 
5 14724.7 
6 12190.3 
7 0 
8 0 
9 19283.3 
10 17961.9 
11 0 
12 0 
13 13651.3 
14 11066.5 
15 0 
16 0 
17 9145.45 
18 9961.63 
19 0 
20 0 
21 19975.1 
22 14331.4 
23 0 
24 0 
25 26397.8 
26 15173.5 
27 0 
28 0 
29 12920.1 
30 15159.1 
31 0 
32 0 
33 15701.8 
34 10811.4 
35 0 
36 0 
37 2213.95 
38 11581.8 
39 0 
40 0 
41 17251.4 
42 14115.9 
43 0 
44 0 
45 21612.4 
46 19461.5 
47 0 
48 0 
49 13073.5 
50 17662.7 
51 0 
52 0 
53 10006.5 
54 9900.82 
55 0 
56 0 
57 11792.7 
58 13781.1 
59 0 
60 0 
61 13426.1 
62 10792.4 
63 0 
64 0 
65 10681.5 
66 13464.8 
67 0 
68 0 
69 22746.2 
70 7342.39 
71 0 
72 0 
73 10321.3 
74 8890.44 
75 0 
76 0 
77 9619.81 
78 7995.82 
79 0 
80 0 
81 11141.6 
82 9217.13 
83 0 
84 0 
85 19256.3 
86 9215.89 
87 0 
88 0 
89 14902.4 
90 8986.15 
91 0 
92 0 
93 6496.79 
94 7891.54 
95 0 
96 0 
97 4435.02 
98 3752.8 
99 0 
100 0 
101 16613.6 
102 3248.99 
103 13157.6 
104 3086.9 
105 6416.11 
106 30977.3 
107 6496.36 
108 4760.11 
109 13855 
110 3877.12 
111 13649.3 
112 10279.4 
113 16166.8 
114 9984.81 
115 5469.48 
116 2029.31 
117 12615.3 
118 1347.52 
119 1766.05 
120 11017.4 
121 2976.87 
122 5677.44 
123 1036.24 
124 7674.68 
125 1979.71 
126 4195.06 
127 2853.23 
128 5700.09 
129 2665.85 
130 5201.33 
131 5371.07 
132 6432.93 
133 4522.5 
134 5179.55 
135 2859.25 
136 6308.1 
137 3337.33 
138 1764.44 
139 369.67 
140 5084.77 
141 2150.96 
142 2965.64 
143 3.3507 
144 1695.16 
145 1714.97 
146 1712.78 
147 1599.92 
148 1083.34 
149 0 
150 1246.17 
151 855.919 
152 1016.54 
153 0 
154 1108.56 
155 37.5365 
156 0 
157 0 
158 2020.26 
159 756.819 
160 2297.12 
161 421.153 
162 0 
163 0 
164 0 
165 527.446 
166 0 
167 0 
168 0 
169 706.673 
170 1360.98 
171 61.6667 
172 0 
173 0 
174 0 
175 0 
176 0 
177 0 
178 0 
179 0 
180 0 
181 0 
182 0 
183 0 
184 0 
185 0 
186 0 
187 0 
188 0 
189 0 
190 0 
191 0 
192 0 
193 0 
194 0 
195 0 
196 0 
197 0 
198 0 
199 0 
200 0 
201 10063 
202 24300.2 
203 8082.78 
204 11102 
205 23426.2 
206 13835.6 
207 6019.3 
208 8031.86 
209 774.843 
210 0 
211 11076.4 
212 14290.8 
213 9667.11 
214 4991.06 
215 6975.52 
216 12186.5 
217 6210.63 
218 12912.3 
219 5846.41 
220 8784.34 
221 12460.9 
222 5274.11 
223 7894.61 
224 8630.15 
225 3985.99 
226 4436.93 
227 4899.1 
228 6449.1 
229 586.608 
230 3291.25 
231 5062.96 
232 1064.55 
233 4353.83 
234 3507.12 
235 1634.6 
236 6802.65 
237 2265.77 
238 2076.21 
239 4721.88 
240 9166.89 
241 307.417 
242 1273.55 
243 4224.04 
244 350.334 
245 1871.33 
246 119.806 
247 979.846 
248 0 
249 3762.21 
250 5731.42 
251 558.331 
252 200.385 
253 50.5748 
254 377.162 
255 1121.15 
256 0 
257 0 
258 0 
259 4378.03 
260 199.16 
261 0 
262 0 
263 0 
264 148.071 
265 1063.36 
266 0 
267 4363.09 
268 472.75 
269 0 
270 472.836 
271 0 
272 0 
273 0 
274 0 
275 0 
276 0 
277 0 
278 0 
279 0 
280 0 
281 0 
282 0 
283 0 
284 0 
285 0 
286 0 
287 0 
288 0 
289 0 
290 0 
291 0 
292 0 
293 0 
294 0 
295 0 
296 0 
297 0 
298 0 
299 0 
300 0 
