ITEM: TIMESTEP
0
ITEM: NUMBER OF SURFS
50
ITEM: BOX BOUNDS oo ro pp
-0.2 0.65
0 0.4
-0.5 0.5
ITEM: SURFS id s_temperature f_1[*] 
1 100 0 
5 100 0 
9 100 0 
13 100 0 
17 100 0 
21 100 0 
25 100 0 
29 100 0 
33 100 0 
37 100 0 
41 100 0 
45 100 0 
49 100 0 
2 100 0 
6 100 0 
10 100 0 
14 100 0 
18 100 0 
22 100 0 
26 100 0 
30 100 0 
34 100 0 
38 100 0 
42 100 0 
46 100 0 
50 100 0 
3 100 0 
7 100 0 
11 100 0 
15 100 0 
19 100 0 
23 100 0 
27 100 0 
31 100 0 
35 100 0 
39 100 0 
43 100 0 
47 100 0 
4 100 0 
8 100 0 
12 100 0 
16 100 0 
20 100 0 
24 100 0 
28 100 0 
32 100 0 
36 100 0 
40 100 0 
44 100 0 
48 100 0 
ITEM: TIMESTEP
250
ITEM: NUMBER OF SURFS
50
ITEM: BOX BOUNDS oo ro pp
-0.2 0.65
0 0.4
-0.5 0.5
ITEM: SURFS id s_temperature f_1[*] 
1 819.791 23049.8 
5 851.836 26870.7 
9 762.12 17216.6 
13 742.87 15541.9 
17 592.526 6290.48 
21 560.182 5025.41 
25 307.343 455.35 
29 100 0 
33 100 0 
37 100 0 
41 100 0 
45 100 0 
49 100 0 
2 825.538 23702.9 
6 798.736 20771.5 
10 795.475 20434.3 
14 760.518 17072.3 
18 702.01 12394.5 
22 463.091 2347.04 
26 286.144 342.129 
30 100 0 
34 100 0 
38 100 0 
42 100 0 
46 100 0 
50 100 0 
3 839.391 25334.5 
7 849.93 26630.9 
11 770.349 17972.3 
15 698.862 12173.6 
19 656.764 9494.95 
23 514.577 3578.14 
27 100 0 
31 100 0 
35 100 0 
39 100 0 
43 100 0 
47 100 0 
4 782.328 19116.5 
8 765.418 17516.5 
12 697.114 12052.3 
16 688.211 11448.3 
20 644.769 8820.02 
24 393.093 1218.53 
28 100 0 
32 100 0 
36 100 0 
40 100 0 
44 100 0 
48 100 0 
ITEM: TIMESTEP
500
ITEM: NUMBER OF SURFS
50
ITEM: BOX BOUNDS oo ro pp
-0.2 0.65
0 0.4
-0.5 0.5
ITEM: SURFS id s_temperature f_1[*] 
1 773.645 18281.9 
5 728.999 14413.3 
9 713.316 13212.4 
13 681.917 11035.2 
17 605.836 6875.01 
21 549.996 4669.75 
25 399.326 1297.67 
29 100 0 
33 100 0 
37 100 0 
41 100 0 
45 100 0 
49 100 0 
2 741.349 15415.1 
6 708.386 12850.9 
10 692.752 11753.5 
14 654.067 9339.95 
18 646.238 8900.72 
22 496.509 3101.43 
26 287.269 347.546 
30 201.646 84.3756 
34 100 0 
38 100 0 
42 100 0 
46 100 0 
50 100 0 
3 717.981 13561.4 
7 740.007 15303.7 
11 652.519 9251.82 
15 630.968 8088.79 
19 579.96 5773.6 
23 457.088 2227.69 
27 321.615 546.008 
31 100 0 
35 100 0 
39 100 0 
43 100 0 
47 100 0 
4 756.677 16730 
8 708.699 12873.7 
12 672.701 10450.7 
16 606.334 6897.65 
20 537.871 4271.36 
24 471.962 2532.12 
28 280.945 317.938 
32 100 0 
36 100 0 
40 100 0 
44 100 0 
48 100 0 
ITEM: TIMESTEP
750
ITEM: NUMBER OF SURFS
50
ITEM: BOX BOUNDS oo ro pp
-0.2 0.65
0 0.4
-0.5 0.5
ITEM: SURFS id s_temperature f_1[*] 
1 717.447 13521.2 
5 721.473 13827.2 
9 698.648 12158.7 
13 623.179 7696.74 
17 604.915 6833.31 
21 459.721 2279.45 
25 400.897 1318.21 
29 231.904 147.6 
33 100 0 
37 100 0 
41 100 0 
45 100 0 
49 100 0 
2 720.128 13724.4 
6 707.004 12750.9 
10 661.85 9792.48 
14 645.091 8837.69 
18 543.273 4445.57 
22 513.786 3556.18 
26 354.334 804.466 
30 222.529 125.142 
34 100 0 
38 100 0 
42 100 0 
46 100 0 
50 100 0 
3 723.596 13990.7 
7 709.445 12928 
11 657.842 9557.4 
15 598.276 6538.24 
19 541.919 4401.4 
23 484.893 2821.22 
27 321.873 547.762 
31 100 0 
35 100 0 
39 100 0 
43 100 0 
47 100 0 
4 741.28 15409.3 
8 699.913 12247.1 
12 659.497 9653.96 
16 611.425 7132.25 
20 555.185 4848.48 
24 453.156 2152.01 
28 363.736 893.307 
32 231.89 147.565 
36 253.425 210.5 
40 100 0 
44 100 0 
48 100 0 
ITEM: TIMESTEP
1000
ITEM: NUMBER OF SURFS
50
ITEM: BOX BOUNDS oo ro pp
-0.2 0.65
0 0.4
-0.5 0.5
ITEM: SURFS id s_temperature f_1[*] 
1 707.167 12762.7 
5 692.994 11769.9 
9 633.083 8197.82 
13 638.357 8474.4 
17 549.315 4646.65 
21 482.144 2757.78 
25 394.931 1241.48 
29 327.667 588.282 
33 256.822 222.016 
37 100 0 
41 100 0 
45 100 0 
49 100 0 
2 687.493 11400.6 
6 683.045 11108.4 
10 691.196 11648.2 
14 611.931 7155.91 
18 530.819 4051.73 
22 445.033 2001.82 
26 387.785 1154.03 
30 223.798 128.021 
34 195.116 73.9642 
38 100 0 
42 100 0 
46 100 0 
50 100 0 
3 752.248 16341.8 
7 699.976 12251.4 
11 683.899 11164.1 
15 587.954 6098.57 
19 526.105 3909.72 
23 469.596 2481.72 
27 336.963 657.935 
31 300.834 417.987 
35 249.911 199.067 
39 100 0 
43 100 0 
47 100 0 
4 701.972 12391.8 
8 689.758 11551.6 
12 631.244 8102.93 
16 542.385 4416.56 
20 458.265 2250.72 
24 503.777 3287.05 
28 368.145 937.412 
32 219.859 119.242 
36 100 0 
40 100 0 
44 100 0 
48 100 0 
ITEM: TIMESTEP
1250
ITEM: NUMBER OF SURFS
50
ITEM: BOX BOUNDS oo ro pp
-0.2 0.65
0 0.4
-0.5 0.5
ITEM: SURFS id s_temperature f_1[*] 
1 693.881 11830.3 
5 686.386 11327.4 
9 700.261 12271.4 
13 639.528 8536.76 
17 588.446 6119.01 
21 473.994 2576 
25 424.437 1656.17 
29 270.805 274.463 
33 100 0 
37 100 0 
41 100 0 
45 100 0 
49 100 0 
2 707.604 12794.3 
6 656.633 9487.38 
10 680.273 10929.2 
14 620.494 7564.91 
18 568.818 5342.55 
22 494.428 3049.78 
26 419.186 1575.73 
30 296.363 393.685 
34 258.414 227.571 
38 100 0 
42 100 0 
46 100 0 
50 100 0 
3 706.73 12731.1 
7 697.905 12107.1 
11 652.84 9270.05 
15 566.094 5240.93 
19 541.218 4378.68 
23 479.201 2691.07 
27 328.572 594.805 
31 263.328 245.381 
35 176.079 49.0554 
39 100 0 
43 100 0 
47 100 0 
4 666.128 10048.1 
8 714.477 13298.6 
12 642.944 8720.58 
16 586.162 6024.55 
20 471.285 2517.61 
24 450.936 2110.16 
28 302.99 430.099 
32 352.595 788.781 
36 175.15 48.0282 
40 100 0 
44 100 0 
48 100 0 
ITEM: TIMESTEP
1500
ITEM: NUMBER OF SURFS
50
ITEM: BOX BOUNDS oo ro pp
-0.2 0.65
0 0.4
-0.5 0.5
ITEM: SURFS id s_temperature f_1[*] 
1 680.063 10915.7 
5 734.185 14827.8 
9 674.586 10568.2 
13 614.516 7277.59 
17 538.011 4275.8 
21 477.918 2662.37 
25 469.432 2478.25 
29 300.223 414.6 
33 233.419 151.496 
37 202.008 84.9825 
41 100 0 
45 100 0 
49 100 0 
2 692.407 11730.1 
6 671.481 10375 
10 660.495 9712.51 
14 559.151 4988.51 
18 578.575 5718.63 
22 469.472 2479.1 
26 406.512 1393.63 
30 320.314 537.23 
34 210.127 99.4901 
38 100 0 
42 100 0 
46 100 0 
50 100 0 
3 674.37 10554.8 
7 684.947 11232.6 
11 645.95 8884.83 
15 563.523 5146.38 
19 521.928 3787.02 
23 452.49 2139.38 
27 366.899 924.782 
31 275.025 291.973 
35 166.899 39.5981 
39 100 0 
43 100 0 
47 100 0 
4 696.951 12041 
8 715.549 13378.6 
12 648.131 9005.43 
16 566.988 5274.11 
20 563.392 5141.58 
24 432.798 1790.58 
28 404.708 1369.06 
32 279.267 310.406 
36 143.705 21.7641 
40 100 0 
44 100 0 
48 100 0 
ITEM: TIMESTEP
1750
ITEM: NUMBER OF SURFS
50
ITEM: BOX BOUNDS oo ro pp
-0.2 0.65
0 0.4
-0.5 0.5
ITEM: SURFS id s_temperature f_1[*] 
1 693.626 11812.9 
5 696.95 12040.9 
9 656.94 9505.13 
13 629.449 8011.16 
17 568.445 5328.54 
21 493.854 3035.62 
25 460.284 2290.65 
29 359.846 855.696 
33 292.36 372.843 
37 100 0 
41 100 0 
45 100 0 
49 100 0 
2 714.781 13321.3 
6 690.84 11624.2 
10 637.357 8421.44 
14 582.314 5867.92 
18 538.989 4307 
22 464.73 2380.43 
26 402.493 1339.33 
30 372.368 981.174 
34 122.812 11.6098 
38 100 0 
42 100 0 
46 100 0 
50 100 0 
3 681.799 11027.6 
7 639.683 8545 
11 649.021 9055.04 
15 616.598 7376.73 
19 547.576 4588.1 
23 478.763 2681.25 
27 350.237 767.894 
31 367.779 933.687 
35 163.615 36.5715 
39 182.019 56.0171 
43 100 0 
47 100 0 
4 702.884 12456.3 
8 680.199 10924.4 
12 656.354 9471.23 
16 562.06 5093.13 
20 459.981 2284.62 
24 427.688 1707.5 
28 335.008 642.8 
32 290.722 364.555 
36 223.568 127.494 
40 100 0 
44 100 0 
48 100 0 
ITEM: TIMESTEP
2000
ITEM: NUMBER OF SURFS
50
ITEM: BOX BOUNDS oo ro pp
-0.2 0.65
0 0.4
-0.5 0.5
ITEM: SURFS id s_temperature f_1[*] 
1 705.541 12645.7 
5 691.969 11700.4 
9 674.584 10568.1 
13 608.541 6998.62 
17 609.73 7053.48 
21 537.442 4257.77 
25 395.719 1251.41 
29 378.328 1045.51 
33 236.421 159.441 
37 156.175 30.3598 
41 100 0 
45 100 0 
49 100 0 
2 675.842 10647.2 
6 698.365 12139 
10 627.75 7925.02 
14 628.554 7965.71 
18 518.409 3685.9 
22 477.439 2651.71 
26 406.125 1388.33 
30 314.613 499.992 
34 229.422 141.382 
38 175.246 48.1332 
42 100 0 
46 100 0 
50 100 0 
3 708.338 12847.4 
7 667.774 10147.8 
11 652.882 9272.4 
15 590.014 6184.49 
19 526.788 3930.06 
23 399.063 1294.26 
27 380.626 1071.14 
31 257.224 223.41 
35 266.968 259.232 
39 178.871 52.2412 
43 100 0 
47 100 0 
4 689.695 11547.3 
8 675.68 10637 
12 639.738 8547.94 
16 555.237 4850.28 
20 511.185 3484.71 
24 487.666 2886.32 
28 365.287 908.635 
32 269.231 268.136 
36 260.84 236.238 
40 100 0 
44 100 0 
48 100 0 
