ITEM: TIMESTEP
0
ITEM: NUMBER OF SURFS
50
ITEM: BOX BOUNDS oo ro pp
-0.2 0.65
0 0.4
-0.5 0.5
ITEM: SURFS id s_temperature f_1[*] 
1 100 0 
2 100 0 
3 100 0 
4 100 0 
5 100 0 
6 100 0 
7 100 0 
8 100 0 
9 100 0 
10 100 0 
11 100 0 
12 100 0 
13 100 0 
14 100 0 
15 100 0 
16 100 0 
17 100 0 
18 100 0 
19 100 0 
20 100 0 
21 100 0 
22 100 0 
23 100 0 
24 100 0 
25 100 0 
26 100 0 
27 100 0 
28 100 0 
29 100 0 
30 100 0 
31 100 0 
32 100 0 
33 100 0 
34 100 0 
35 100 0 
36 100 0 
37 100 0 
38 100 0 
39 100 0 
40 100 0 
41 100 0 
42 100 0 
43 100 0 
44 100 0 
45 100 0 
46 100 0 
47 100 0 
48 100 0 
49 100 0 
50 100 0 
ITEM: TIMESTEP
250
ITEM: NUMBER OF SURFS
50
ITEM: BOX BOUNDS oo ro pp
-0.2 0.65
0 0.4
-0.5 0.5
ITEM: SURFS id s_temperature f_1[*] 
1 818.354 22888.6 
2 860.253 27948.5 
3 798.52 20749 
4 878.971 30461.6 
5 781.965 19081.1 
6 778.139 18710.4 
7 810.646 22038.4 
8 807.741 21724.2 
9 749.479 16102.5 
10 804.562 21384.2 
11 760.251 17048.4 
12 670.791 10332.5 
13 791.943 20073.8 
14 771.788 18107 
15 687.325 11389.4 
16 626.005 7837.29 
17 622.114 7644.23 
18 686.177 11313.5 
19 658.699 9607.32 
20 600.589 6639.92 
21 540.366 4351.17 
22 533.714 4140.85 
23 461.735 2319.67 
24 356.541 824.695 
25 335.667 647.873 
26 230.095 143.047 
27 209.96 99.1747 
28 100 0 
29 100 0 
30 100 0 
31 100 0 
32 100 0 
33 100 0 
34 100 0 
35 100 0 
36 100 0 
37 100 0 
38 100 0 
39 100 0 
40 100 0 
41 100 0 
42 100 0 
43 100 0 
44 100 0 
45 100 0 
46 100 0 
47 100 0 
48 100 0 
49 100 0 
50 100 0 
