ITEM: TIMESTEP
0
ITEM: NUMBER OF SURFS
300
ITEM: BOX BOUNDS oo ro ro
-0.2 0.65
0 0.4
0 0.4
ITEM: SURFS id f_1[*] 
1 0 
5 0 
9 0 
13 0 
17 0 
21 0 
25 0 
29 0 
33 0 
37 0 
41 0 
45 0 
49 0 
53 0 
57 0 
61 0 
65 0 
69 0 
73 0 
77 0 
81 0 
85 0 
89 0 
93 0 
97 0 
101 0 
105 0 
109 0 
113 0 
117 0 
121 0 
125 0 
129 0 
133 0 
137 0 
141 0 
145 0 
149 0 
153 0 
157 0 
161 0 
165 0 
169 0 
173 0 
177 0 
181 0 
185 0 
189 0 
193 0 
197 0 
201 0 
205 0 
209 0 
213 0 
217 0 
221 0 
225 0 
229 0 
233 0 
237 0 
241 0 
245 0 
249 0 
253 0 
257 0 
261 0 
265 0 
269 0 
273 0 
277 0 
281 0 
285 0 
289 0 
293 0 
297 0 
2 0 
6 0 
10 0 
14 0 
18 0 
22 0 
26 0 
30 0 
34 0 
38 0 
42 0 
46 0 
50 0 
54 0 
58 0 
62 0 
66 0 
70 0 
74 0 
78 0 
82 0 
86 0 
90 0 
94 0 
98 0 
102 0 
106 0 
110 0 
114 0 
118 0 
122 0 
126 0 
130 0 
134 0 
138 0 
142 0 
146 0 
150 0 
154 0 
158 0 
162 0 
166 0 
170 0 
174 0 
178 0 
182 0 
186 0 
190 0 
194 0 
198 0 
202 0 
206 0 
210 0 
214 0 
218 0 
222 0 
226 0 
230 0 
234 0 
238 0 
242 0 
246 0 
250 0 
254 0 
258 0 
262 0 
266 0 
270 0 
274 0 
278 0 
282 0 
286 0 
290 0 
294 0 
298 0 
3 0 
7 0 
11 0 
15 0 
19 0 
23 0 
27 0 
31 0 
35 0 
39 0 
43 0 
47 0 
51 0 
55 0 
59 0 
63 0 
67 0 
71 0 
75 0 
79 0 
83 0 
87 0 
91 0 
95 0 
99 0 
103 0 
107 0 
111 0 
115 0 
119 0 
123 0 
127 0 
131 0 
135 0 
139 0 
143 0 
147 0 
151 0 
155 0 
159 0 
163 0 
167 0 
171 0 
175 0 
179 0 
183 0 
187 0 
191 0 
195 0 
199 0 
203 0 
207 0 
211 0 
215 0 
219 0 
223 0 
227 0 
231 0 
235 0 
239 0 
243 0 
247 0 
251 0 
255 0 
259 0 
263 0 
267 0 
271 0 
275 0 
279 0 
283 0 
287 0 
291 0 
295 0 
299 0 
4 0 
8 0 
12 0 
16 0 
20 0 
24 0 
28 0 
32 0 
36 0 
40 0 
44 0 
48 0 
52 0 
56 0 
60 0 
64 0 
68 0 
72 0 
76 0 
80 0 
84 0 
88 0 
92 0 
96 0 
100 0 
104 0 
108 0 
112 0 
116 0 
120 0 
124 0 
128 0 
132 0 
136 0 
140 0 
144 0 
148 0 
152 0 
156 0 
160 0 
164 0 
168 0 
172 0 
176 0 
180 0 
184 0 
188 0 
192 0 
196 0 
200 0 
204 0 
208 0 
212 0 
216 0 
220 0 
224 0 
228 0 
232 0 
236 0 
240 0 
244 0 
248 0 
252 0 
256 0 
260 0 
264 0 
268 0 
272 0 
276 0 
280 0 
284 0 
288 0 
292 0 
296 0 
300 0 
ITEM: TIMESTEP
500
ITEM: NUMBER OF SURFS
300
ITEM: BOX BOUNDS oo ro ro
-0.2 0.65
0 0.4
0 0.4
ITEM: SURFS id f_1[*] 
1 21241.3 
5 19903.3 
9 23770.8 
13 11650.6 
17 27948.7 
21 26731.2 
25 23996.8 
29 11314 
33 12075.8 
37 18113.6 
41 18370.5 
45 15956.8 
49 11761.7 
53 8622.04 
57 12215.3 
61 16492.2 
65 11474.4 
69 1903.08 
73 19776.6 
77 20541.6 
81 11954.6 
85 22152.5 
89 12772.1 
93 11681.7 
97 20478.3 
101 7198.42 
105 12283.3 
109 28439.5 
113 5807.59 
117 14742.8 
121 14484 
125 6128.41 
129 3678.21 
133 7358.95 
137 4167.7 
141 2341.84 
145 646.438 
149 6009.15 
153 0 
157 148.141 
161 0 
165 0 
169 0 
173 0 
177 0 
181 0 
185 0 
189 0 
193 0 
197 0 
201 5832.34 
205 4640.48 
209 22526.4 
213 10797.7 
217 13287.2 
221 11899.6 
225 5975.66 
229 6467.97 
233 5110.51 
237 1916.19 
241 2043.36 
245 2175.81 
249 0 
253 0 
257 0 
261 0 
265 0 
269 0 
273 0 
277 0 
281 0 
285 0 
289 0 
293 0 
297 0 
2 18215.8 
6 20892.6 
10 16657.9 
14 25143.6 
18 8547.41 
22 24195.1 
26 20901.2 
30 17488.3 
34 29980.8 
38 12610.1 
42 16445.4 
46 23803.8 
50 15101.9 
54 24445.9 
58 19843.1 
62 23817.7 
66 16466.1 
70 20099.8 
74 17964.1 
78 14365 
82 11065 
86 20047.2 
90 9841.98 
94 12477.9 
98 17264.1 
102 7266.01 
106 6138.89 
110 10582.8 
114 15192.5 
118 3092.92 
122 5922.82 
126 4057.28 
130 0 
134 5992.86 
138 3076.46 
142 4006.66 
146 1187.37 
150 5205.58 
154 622.753 
158 1706.92 
162 0 
166 0 
170 0 
174 0 
178 0 
182 0 
186 0 
190 0 
194 0 
198 0 
202 24445.1 
206 1274.74 
210 8580.79 
214 4025.99 
218 6822.94 
222 11584.5 
226 6531.87 
230 6727.69 
234 11037.4 
238 3988.12 
242 1878.02 
246 4732.13 
250 0 
254 113.769 
258 0 
262 0 
266 0 
270 0 
274 0 
278 0 
282 0 
286 0 
290 0 
294 0 
298 0 
3 0 
7 0 
11 0 
15 0 
19 0 
23 0 
27 0 
31 0 
35 0 
39 0 
43 0 
47 0 
51 0 
55 0 
59 0 
63 0 
67 0 
71 0 
75 0 
79 0 
83 0 
87 0 
91 0 
95 0 
99 0 
103 14667.5 
107 9007.86 
111 16471.8 
115 5487.73 
119 11549.4 
123 3274.07 
127 10788 
131 0 
135 5077.16 
139 0 
143 5345.78 
147 1188.21 
151 0 
155 0 
159 0 
163 0 
167 0 
171 0 
175 0 
179 0 
183 0 
187 0 
191 0 
195 0 
199 0 
203 12912.4 
207 4151.58 
211 1727.84 
215 2651.39 
219 12239.2 
223 15278.9 
227 10619.6 
231 6384.76 
235 5205.86 
239 1454.19 
243 2983.41 
247 0 
251 0 
255 0 
259 0 
263 0 
267 0 
271 0 
275 0 
279 0 
283 0 
287 0 
291 0 
295 0 
299 0 
4 0 
8 0 
12 0 
16 0 
20 0 
24 0 
28 0 
32 0 
36 0 
40 0 
44 0 
48 0 
52 0 
56 0 
60 0 
64 0 
68 0 
72 0 
76 0 
80 0 
84 0 
88 0 
92 0 
96 0 
100 0 
104 3475.23 
108 4896.08 
112 6013.09 
116 5853.07 
120 5191.08 
124 2077.47 
128 10654.4 
132 5511.6 
136 2420.9 
140 0 
144 1352.59 
148 1859.35 
152 0 
156 0 
160 0 
164 0 
168 0 
172 0 
176 0 
180 0 
184 0 
188 0 
192 0 
196 0 
200 0 
204 12381.6 
208 14245 
212 6276.95 
216 12971.2 
220 6001.67 
224 5996.04 
228 4407.92 
232 4006.95 
236 4746.64 
240 2911.75 
244 1106.27 
248 0 
252 0 
256 1017.61 
260 0 
264 0 
268 0 
272 0 
276 0 
280 0 
284 0 
288 0 
292 0 
296 0 
300 0 
ITEM: TIMESTEP
1000
ITEM: NUMBER OF SURFS
300
ITEM: BOX BOUNDS oo ro ro
-0.2 0.65
0 0.4
0 0.4
ITEM: SURFS id f_1[*] 
1 18921.9 
5 25844.3 
9 13882 
13 19115.5 
17 16588.9 
21 23421 
25 14270 
29 22840.9 
33 12821 
37 11010.5 
41 22288.4 
45 19334.9 
49 15973.3 
53 16678.6 
57 9971.7 
61 18471.7 
65 11516.7 
69 9578.54 
73 10180.9 
77 5942.42 
81 9759.91 
85 9370.63 
89 13040.5 
93 15031 
97 7445.7 
101 12921 
105 15692.7 
109 9593.99 
113 6588.84 
117 7311 
121 7949.41 
125 3465.81 
129 0 
133 2410.77 
137 3494.36 
141 246.964 
145 6806.06 
149 0 
153 202.578 
157 1014.03 
161 0 
165 0 
169 0 
173 0 
177 0 
181 0 
185 0 
189 0 
193 0 
197 0 
201 7421.31 
205 21140.2 
209 8079.49 
213 5697.19 
217 11606.3 
221 7242.3 
225 4750.07 
229 5860.53 
233 4634.67 
237 6155.73 
241 0 
245 4727.61 
249 198.129 
253 1508.77 
257 0 
261 0 
265 1562.46 
269 0 
273 0 
277 0 
281 0 
285 0 
289 0 
293 1026.22 
297 0 
2 24715.9 
6 18190.4 
10 20883.9 
14 11901.5 
18 11688 
22 18392.8 
26 17960.9 
30 14993.4 
34 25476.8 
38 13458.3 
42 16276.5 
46 22256.5 
50 10758.7 
54 17519.7 
58 14775.9 
62 16868.1 
66 13755.8 
70 8816.2 
74 2366.29 
78 23415.8 
82 13853.4 
86 14794.6 
90 15012.1 
94 13223 
98 18109.5 
102 6874.88 
106 14084.6 
110 4659.15 
114 6854.64 
118 13553.9 
122 8078.09 
126 3782.75 
130 1939.11 
134 1967.85 
138 11910.6 
142 2011.43 
146 4058.93 
150 4903.5 
154 1344.97 
158 0 
162 0 
166 0 
170 0 
174 0 
178 0 
182 0 
186 0 
190 0 
194 0 
198 0 
202 9319.44 
206 11271 
210 19793.7 
214 16411.6 
218 9600.68 
222 1438.48 
226 2769.01 
230 1006.02 
234 2882.1 
238 4593.18 
242 3871.96 
246 1447.44 
250 0 
254 995.425 
258 338.113 
262 0 
266 0 
270 3335.43 
274 0 
278 0 
282 0 
286 0 
290 0 
294 0 
298 0 
3 0 
7 0 
11 0 
15 0 
19 0 
23 0 
27 0 
31 0 
35 0 
39 0 
43 0 
47 0 
51 0 
55 0 
59 0 
63 0 
67 0 
71 0 
75 0 
79 0 
83 0 
87 0 
91 0 
95 0 
99 0 
103 8770.48 
107 19387.9 
111 8830.14 
115 4138.95 
119 3048.79 
123 1390.61 
127 6733.48 
131 4521.1 
135 7113.28 
139 4777.84 
143 1481.6 
147 3910.31 
151 0 
155 0 
159 209.409 
163 0 
167 0 
171 0 
175 0 
179 0 
183 0 
187 0 
191 0 
195 0 
199 0 
203 10262.3 
207 14299.8 
211 5310.31 
215 10647.4 
219 3119.24 
223 4052.9 
227 1794.12 
231 3539.98 
235 8798.75 
239 9508.25 
243 2806.69 
247 3615.75 
251 0 
255 0 
259 194.931 
263 0 
267 0 
271 141.879 
275 0 
279 0 
283 0 
287 0 
291 0 
295 0 
299 0 
4 0 
8 0 
12 0 
16 0 
20 0 
24 0 
28 0 
32 0 
36 0 
40 0 
44 0 
48 0 
52 0 
56 0 
60 0 
64 0 
68 0 
72 0 
76 0 
80 0 
84 0 
88 0 
92 0 
96 0 
100 0 
104 10550.2 
108 11020.8 
112 13053.7 
116 5228.15 
120 9485.08 
124 6658.55 
128 5284.62 
132 4765.32 
136 3609.73 
140 2404.62 
144 0 
148 1210.63 
152 0 
156 957.662 
160 188.18 
164 667.519 
168 988.782 
172 0 
176 0 
180 0 
184 167.864 
188 0 
192 0 
196 0 
200 0 
204 15921.3 
208 6542.25 
212 8181.11 
216 3894.59 
220 999.861 
224 6270.02 
228 6990.22 
232 4044.32 
236 2503.29 
240 2041.11 
244 739.851 
248 550.327 
252 1494.7 
256 0 
260 810.379 
264 694.383 
268 0 
272 0 
276 0 
280 0 
284 0 
288 0 
292 0 
296 0 
300 0 
ITEM: TIMESTEP
1500
ITEM: NUMBER OF SURFS
300
ITEM: BOX BOUNDS oo ro ro
-0.2 0.65
0 0.4
0 0.4
ITEM: SURFS id f_1[*] 
1 22583.7 
5 17763.6 
9 16875.3 
13 7780.38 
17 9836.15 
21 15925.4 
25 26212.6 
29 13265.4 
33 12858.1 
37 10358.4 
41 18373.7 
45 16659.6 
49 13941.5 
53 16534.7 
57 17520.5 
61 21300 
65 12564.3 
69 21517 
73 8345.5 
77 5155.74 
81 7156.56 
85 14418.1 
89 2257.27 
93 8858.98 
97 1285.37 
101 5965 
105 11301.5 
109 13277.5 
113 8537.42 
117 7648.49 
121 2426.52 
125 9518.11 
129 10274.3 
133 6008.52 
137 1648.51 
141 640.706 
145 2090.46 
149 2570.7 
153 0 
157 0 
161 0 
165 0 
169 0 
173 0 
177 456.118 
181 0 
185 0 
189 0 
193 0 
197 0 
201 22139.1 
205 13186.2 
209 12435.9 
213 13219.9 
217 6259.36 
221 3742.75 
225 11358.3 
229 4857.61 
233 1505.43 
237 0 
241 3489.22 
245 1535.95 
249 78.4925 
253 637.087 
257 1185.49 
261 1172.9 
265 784.613 
269 0 
273 0 
277 0 
281 0 
285 0 
289 0 
293 0 
297 0 
2 18228.5 
6 17192.8 
10 21182.6 
14 10647.5 
18 20396.9 
22 10719.6 
26 18552.2 
30 9702.65 
34 13901.3 
38 14799.7 
42 11375.1 
46 14473.5 
50 14722.8 
54 12237.4 
58 1902.22 
62 9464.42 
66 12545.9 
70 9267.4 
74 8348.79 
78 1028.66 
82 10688 
86 4768.16 
90 9271.55 
94 17737.1 
98 5920.16 
102 13520.8 
106 24175.4 
110 11559.2 
114 11476.4 
118 14145.8 
122 7579.34 
126 4408.77 
130 14205.5 
134 6806.69 
138 882.404 
142 4108.07 
146 1017.25 
150 1629.57 
154 0 
158 0 
162 0 
166 0 
170 0 
174 0 
178 0 
182 0 
186 0 
190 0 
194 0 
198 0 
202 9298.39 
206 20352.8 
210 10737.7 
214 9089.14 
218 5892.7 
222 6845.34 
226 4262.41 
230 9018.86 
234 3790.93 
238 2032.1 
242 1435.62 
246 0 
250 2402.31 
254 12.0043 
258 4837.6 
262 0 
266 0 
270 0 
274 0 
278 0 
282 0 
286 0 
290 0 
294 0 
298 0 
3 0 
7 0 
11 0 
15 0 
19 0 
23 0 
27 0 
31 0 
35 0 
39 0 
43 0 
47 0 
51 0 
55 0 
59 0 
63 0 
67 0 
71 0 
75 0 
79 0 
83 0 
87 0 
91 0 
95 0 
99 0 
103 21368.1 
107 13241 
111 14398.9 
115 6291.34 
119 13143.3 
123 11461.4 
127 1339.13 
131 2953.04 
135 3059.9 
139 6777.76 
143 3969.1 
147 3192 
151 0 
155 339.373 
159 0 
163 0 
167 0 
171 0 
175 0 
179 0 
183 0 
187 0 
191 0 
195 0 
199 0 
203 13491.8 
207 18403.7 
211 10438 
215 7900.45 
219 9744.4 
223 6483.34 
227 1403.05 
231 4553.35 
235 3298.75 
239 4652.3 
243 3976.28 
247 200.198 
251 0 
255 352.723 
259 0 
263 0 
267 0 
271 0 
275 386.721 
279 0 
283 0 
287 0 
291 0 
295 0 
299 0 
4 0 
8 0 
12 0 
16 0 
20 0 
24 0 
28 0 
32 0 
36 0 
40 0 
44 0 
48 0 
52 0 
56 0 
60 0 
64 0 
68 0 
72 0 
76 0 
80 0 
84 0 
88 0 
92 0 
96 0 
100 0 
104 12743.1 
108 10952.2 
112 9686.23 
116 6684.52 
120 12377.8 
124 6719.22 
128 5084.07 
132 3105.64 
136 920.192 
140 7381.23 
144 3241.3 
148 338.01 
152 0 
156 0 
160 2760.22 
164 0 
168 0 
172 0 
176 0 
180 0 
184 0 
188 0 
192 0 
196 0 
200 0 
204 13582.7 
208 26907.3 
212 14766.1 
216 13773.6 
220 6343.21 
224 1027.02 
228 2777.35 
232 6902.67 
236 7517.72 
240 286.459 
244 798.325 
248 1023.48 
252 545.563 
256 2281.18 
260 214.721 
264 1453.21 
268 2280.83 
272 0 
276 0 
280 3971.16 
284 0 
288 0 
292 0 
296 0 
300 0 
ITEM: TIMESTEP
2000
ITEM: NUMBER OF SURFS
300
ITEM: BOX BOUNDS oo ro ro
-0.2 0.65
0 0.4
0 0.4
ITEM: SURFS id f_1[*] 
1 13800.8 
5 27358.8 
9 16551.1 
13 7222.46 
17 13314.8 
21 15933.1 
25 14648.8 
29 9872.81 
33 13431.7 
37 21361.7 
41 18393.5 
45 21635 
49 4447.07 
53 10963.6 
57 9649.26 
61 6742.2 
65 11885.7 
69 16991.8 
73 16160.8 
77 9918.01 
81 8919.07 
85 5817.84 
89 8557.47 
93 7070.52 
97 10217.7 
101 11028.2 
105 4664.98 
109 14732.4 
113 6918.93 
117 7494.08 
121 3974.21 
125 7172.74 
129 2241.27 
133 609.248 
137 1311.82 
141 1646.91 
145 3786.63 
149 0 
153 0 
157 710.157 
161 0 
165 0 
169 0 
173 0 
177 0 
181 0 
185 0 
189 0 
193 0 
197 0 
201 5374.84 
205 17810.1 
209 10249.1 
213 9254.58 
217 2695.79 
221 4554.41 
225 4107.96 
229 4787.9 
233 4685.42 
237 3210.83 
241 1219.26 
245 0 
249 1241.87 
253 0 
257 0 
261 897.829 
265 0 
269 0 
273 0 
277 0 
281 0 
285 0 
289 0 
293 0 
297 0 
2 26047.8 
6 16973.6 
10 12254.6 
14 2154.15 
18 3927.79 
22 26826.9 
26 16212.2 
30 14269.1 
34 15051.7 
38 9990.39 
42 22673.6 
46 17718.3 
50 8476.28 
54 10870.3 
58 16622.2 
62 8693.62 
66 16353.4 
70 15857.3 
74 5151.95 
78 11425 
82 24399.5 
86 10633.1 
90 18430.8 
94 11381 
98 13039.6 
102 10746.5 
106 6518.64 
110 14068 
114 11861.1 
118 3713.5 
122 4312.82 
126 13927 
130 8557.8 
134 5343.43 
138 4985.01 
142 1097.02 
146 2567.94 
150 2492.43 
154 0 
158 988.981 
162 0 
166 0 
170 1842.95 
174 0 
178 0 
182 0 
186 0 
190 0 
194 0 
198 0 
202 13402.4 
206 4868.65 
210 5156.99 
214 2288.02 
218 3767.78 
222 2716.7 
226 1304.55 
230 0 
234 3201.56 
238 5718.04 
242 639.038 
246 4948.97 
250 7692.49 
254 1214.29 
258 2360.17 
262 0 
266 327.01 
270 971.953 
274 0 
278 0 
282 0 
286 0 
290 0 
294 0 
298 0 
3 0 
7 0 
11 0 
15 0 
19 0 
23 0 
27 0 
31 0 
35 0 
39 0 
43 0 
47 0 
51 0 
55 0 
59 0 
63 0 
67 0 
71 0 
75 0 
79 0 
83 0 
87 0 
91 0 
95 0 
99 0 
103 15832.5 
107 13218.8 
111 14139.2 
115 11362.9 
119 3841.91 
123 12937.3 
127 10639.5 
131 2299.22 
135 4345.78 
139 674.083 
143 967.254 
147 5462.14 
151 0 
155 1180.83 
159 0 
163 312.763 
167 0 
171 0 
175 0 
179 0 
183 0 
187 0 
191 0 
195 0 
199 0 
203 17851.3 
207 10712.8 
211 3997.14 
215 7463.4 
219 14147.2 
223 7766.86 
227 5608.91 
231 4992.35 
235 1149.71 
239 2457.67 
243 6000.81 
247 580.086 
251 2288.82 
255 436.967 
259 0 
263 974.085 
267 0 
271 0 
275 0 
279 290.81 
283 0 
287 0 
291 0 
295 0 
299 0 
4 0 
8 0 
12 0 
16 0 
20 0 
24 0 
28 0 
32 0 
36 0 
40 0 
44 0 
48 0 
52 0 
56 0 
60 0 
64 0 
68 0 
72 0 
76 0 
80 0 
84 0 
88 0 
92 0 
96 0 
100 0 
104 11853.6 
108 4884.05 
112 14851.4 
116 8082.4 
120 7572.66 
124 6425.99 
128 2571.79 
132 3242.19 
136 1558.53 
140 6872.08 
144 4804.15 
148 2440.94 
152 0 
156 348.458 
160 4200.38 
164 0 
168 0 
172 570.814 
176 0 
180 0 
184 0 
188 0 
192 0 
196 0 
200 0 
204 7669.35 
208 13032.7 
212 8313.61 
216 5160.22 
220 7161.23 
224 3624.71 
228 438.293 
232 2458.46 
236 4708.21 
240 2526.37 
244 0 
248 1673.06 
252 349.424 
256 1425.23 
260 1334.36 
264 208.414 
268 1009.4 
272 0 
276 0 
280 0 
284 0 
288 0 
292 0 
296 0 
300 0 
