ITEM: TIMESTEP
0
ITEM: NUMBER OF SURFS
50
ITEM: BOX BOUNDS oo ro pp
-0.2 0.65
0 0.4
-0.5 0.5
ITEM: SURFS id f_1[*] 
1 0 
5 0 
9 0 
13 0 
17 0 
21 0 
25 0 
29 0 
33 0 
37 0 
41 0 
45 0 
49 0 
2 0 
6 0 
10 0 
14 0 
18 0 
22 0 
26 0 
30 0 
34 0 
38 0 
42 0 
46 0 
50 0 
3 0 
7 0 
11 0 
15 0 
19 0 
23 0 
27 0 
31 0 
35 0 
39 0 
43 0 
47 0 
4 0 
8 0 
12 0 
16 0 
20 0 
24 0 
28 0 
32 0 
36 0 
40 0 
44 0 
48 0 
ITEM: TIMESTEP
250
ITEM: NUMBER OF SURFS
50
ITEM: BOX BOUNDS oo ro pp
-0.2 0.65
0 0.4
-0.5 0.5
ITEM: SURFS id f_1[*] 
1 23049.8 
5 26870.7 
9 17216.6 
13 15541.9 
17 6290.48 
21 5025.41 
25 455.35 
29 0 
33 0 
37 0 
41 0 
45 0 
49 0 
2 23702.9 
6 20771.5 
10 20434.3 
14 17072.3 
18 12394.5 
22 2347.04 
26 342.129 
30 0 
34 0 
38 0 
42 0 
46 0 
50 0 
3 25334.5 
7 26630.9 
11 17972.3 
15 12173.6 
19 9494.95 
23 3578.14 
27 0 
31 0 
35 0 
39 0 
43 0 
47 0 
4 19116.5 
8 17516.5 
12 12052.3 
16 11448.3 
20 8820.02 
24 1218.53 
28 0 
32 0 
36 0 
40 0 
44 0 
48 0 
ITEM: TIMESTEP
500
ITEM: NUMBER OF SURFS
50
ITEM: BOX BOUNDS oo ro pp
-0.2 0.65
0 0.4
-0.5 0.5
ITEM: SURFS id f_1[*] 
1 22023.7 
5 19166.3 
9 14528.3 
13 11431.7 
17 6850.17 
21 4796.51 
25 730.057 
29 228.485 
33 0 
37 0 
41 0 
45 0 
49 0 
2 20131.1 
6 18158.1 
10 16468.6 
14 9754.91 
18 10337.7 
22 6042.73 
26 920.389 
30 0 
34 0 
38 0 
42 0 
46 0 
50 0 
3 17274.9 
7 18262.4 
11 12838.7 
15 9434.04 
19 5689.1 
23 2569.38 
27 453.287 
31 33.5613 
35 0 
39 0 
43 0 
47 0 
4 19148.8 
8 18983.8 
12 12998.9 
16 11812.4 
20 4327.94 
24 2053.76 
28 214.023 
32 0 
36 0 
40 0 
44 0 
48 0 
ITEM: TIMESTEP
750
ITEM: NUMBER OF SURFS
50
ITEM: BOX BOUNDS oo ro pp
-0.2 0.65
0 0.4
-0.5 0.5
ITEM: SURFS id f_1[*] 
1 18131.2 
5 15041 
9 12931.3 
13 10375.7 
17 7116.3 
21 4023.57 
25 1256.03 
29 764.906 
33 0 
37 0 
41 0 
45 0 
49 0 
2 17206.9 
6 14121.9 
10 12891.1 
14 8326.02 
18 6336.57 
22 2566.6 
26 617.523 
30 190.646 
34 184.767 
38 0 
42 0 
46 0 
50 0 
3 16113.6 
7 14609.7 
11 10830 
15 8739.74 
19 4358.91 
23 3068.93 
27 915.688 
31 341.095 
35 0 
39 0 
43 0 
47 0 
4 16582 
8 13585.7 
12 10352.8 
16 9123.28 
20 5149.88 
24 2668.51 
28 1241.1 
32 0 
36 0 
40 0 
44 0 
48 0 
ITEM: TIMESTEP
1000
ITEM: NUMBER OF SURFS
50
ITEM: BOX BOUNDS oo ro pp
-0.2 0.65
0 0.4
-0.5 0.5
ITEM: SURFS id f_1[*] 
1 14603.7 
5 14519.9 
9 11465.4 
13 8976.05 
17 6705.82 
21 2599.17 
25 1580.55 
29 375.808 
33 44.4419 
37 0 
41 0 
45 0 
49 0 
2 15502.2 
6 14199.6 
10 10727.3 
14 8242.64 
18 5095.59 
22 3090.66 
26 1557.31 
30 469.645 
34 101.673 
38 0 
42 0 
46 0 
50 0 
3 13743.7 
7 14046.1 
11 10325.8 
15 8435.8 
19 4095.89 
23 2363.13 
27 824.238 
31 448.627 
35 0 
39 0 
43 0 
47 0 
4 14068.2 
8 14400.9 
12 9971.23 
16 6187.82 
20 4331.81 
24 1671.42 
28 430.507 
32 255.692 
36 36.2378 
40 0 
44 0 
48 0 
ITEM: TIMESTEP
1250
ITEM: NUMBER OF SURFS
50
ITEM: BOX BOUNDS oo ro pp
-0.2 0.65
0 0.4
-0.5 0.5
ITEM: SURFS id f_1[*] 
1 16098.9 
5 12157.3 
9 10407.1 
13 10076.3 
17 5058.12 
21 2805.25 
25 2459.9 
29 844.589 
33 57.7772 
37 0 
41 0 
45 0 
49 0 
2 15314.3 
6 14047.7 
10 12597.4 
14 7073.16 
18 4385.7 
22 2968.49 
26 3004.88 
30 550.309 
34 31.4669 
38 0 
42 0 
46 0 
50 0 
3 14089.3 
7 12542.8 
11 8889.38 
15 8306.46 
19 4798.62 
23 1875.71 
27 1622.89 
31 99.9805 
35 0 
39 0 
43 0 
47 0 
4 14032.7 
8 11594.4 
12 10256.2 
16 4428.13 
20 4880.26 
24 1438.96 
28 596.683 
32 868.587 
36 71.3377 
40 0 
44 0 
48 0 
ITEM: TIMESTEP
1500
ITEM: NUMBER OF SURFS
50
ITEM: BOX BOUNDS oo ro pp
-0.2 0.65
0 0.4
-0.5 0.5
ITEM: SURFS id f_1[*] 
1 13681 
5 14859.5 
9 9589.53 
13 9580.27 
17 6197.13 
21 3525.15 
25 1670.12 
29 564.347 
33 297.424 
37 25.9665 
41 0 
45 0 
49 0 
2 13580.5 
6 12297.8 
10 9804.59 
14 6839.81 
18 4354.33 
22 2720.09 
26 1698.34 
30 394.066 
34 57.3039 
38 0 
42 0 
46 0 
50 0 
3 12649 
7 13084.2 
11 8103.08 
15 7911.16 
19 4479.07 
23 2279.31 
27 630.983 
31 260.97 
35 298.427 
39 0 
43 0 
47 0 
4 13114.4 
8 11840.8 
12 8396.5 
16 6682.12 
20 4251.8 
24 1921.12 
28 1282.25 
32 118.748 
36 115.284 
40 0 
44 0 
48 0 
ITEM: TIMESTEP
1750
ITEM: NUMBER OF SURFS
50
ITEM: BOX BOUNDS oo ro pp
-0.2 0.65
0 0.4
-0.5 0.5
ITEM: SURFS id f_1[*] 
1 13409.3 
5 12511.1 
9 12216.8 
13 7802.33 
17 6266.75 
21 4112.67 
25 1261.18 
29 460.541 
33 43.1544 
37 0 
41 0 
45 0 
49 0 
2 12748.6 
6 13172 
10 11465.2 
14 6132.7 
18 4856.85 
22 2605.63 
26 1233.01 
30 558.077 
34 160.571 
38 94.97 
42 0 
46 0 
50 0 
3 14495.8 
7 13159 
11 10914.5 
15 8195.41 
19 5090.81 
23 2695.43 
27 590.884 
31 380.705 
35 176.874 
39 0 
43 43.6379 
47 0 
4 12022.6 
8 11782.3 
12 8306.45 
16 5049.22 
20 3381.27 
24 2233.12 
28 835.896 
32 331.385 
36 186.159 
40 0 
44 0 
48 0 
ITEM: TIMESTEP
2000
ITEM: NUMBER OF SURFS
50
ITEM: BOX BOUNDS oo ro pp
-0.2 0.65
0 0.4
-0.5 0.5
ITEM: SURFS id f_1[*] 
1 16635.8 
5 13718.8 
9 13400.3 
13 6119.26 
17 5152.05 
21 3409.06 
25 1421.27 
29 1257.81 
33 231.081 
37 21.4391 
41 0 
45 0 
49 0 
2 12984.6 
6 15310.7 
10 9983.62 
14 6326.71 
18 4268.48 
22 2459.9 
26 1045.05 
30 542.62 
34 175.495 
38 147.121 
42 0 
46 0 
50 0 
3 15489 
7 11535.6 
11 9591.4 
15 6913.03 
19 3258.42 
23 3209.7 
27 850.908 
31 370.392 
35 15.0402 
39 0 
43 0 
47 0 
4 14276.2 
8 9562.32 
12 9529.55 
16 5899.67 
20 3326.18 
24 1586.55 
28 914.408 
32 308.88 
36 155.969 
40 59.3622 
44 0 
48 0 
