ITEM: TIMESTEP
0
ITEM: NUMBER OF SURFS
50
ITEM: BOX BOUNDS oo ro pp
-0.2 0.65
0 0.4
-0.5 0.5
ITEM: SURFS id s_temperature f_1[*] 
1 100 0 
5 100 0 
9 100 0 
13 100 0 
17 100 0 
21 100 0 
25 100 0 
29 100 0 
33 100 0 
37 100 0 
41 100 0 
45 100 0 
49 100 0 
2 100 0 
6 100 0 
10 100 0 
14 100 0 
18 100 0 
22 100 0 
26 100 0 
30 100 0 
34 100 0 
38 100 0 
42 100 0 
46 100 0 
50 100 0 
3 100 0 
7 100 0 
11 100 0 
15 100 0 
19 100 0 
23 100 0 
27 100 0 
31 100 0 
35 100 0 
39 100 0 
43 100 0 
47 100 0 
4 100 0 
8 100 0 
12 100 0 
16 100 0 
20 100 0 
24 100 0 
28 100 0 
32 100 0 
36 100 0 
40 100 0 
44 100 0 
48 100 0 
ITEM: TIMESTEP
250
ITEM: NUMBER OF SURFS
50
ITEM: BOX BOUNDS oo ro pp
-0.2 0.65
0 0.4
-0.5 0.5
ITEM: SURFS id s_temperature f_1[*] 
1 819.791 23049.8 
5 851.836 26870.7 
9 762.12 17216.6 
13 742.87 15541.9 
17 592.526 6290.48 
21 560.182 5025.41 
25 307.343 455.35 
29 100 0 
33 100 0 
37 100 0 
41 100 0 
45 100 0 
49 100 0 
2 825.538 23702.9 
6 798.736 20771.5 
10 795.475 20434.3 
14 760.518 17072.3 
18 702.01 12394.5 
22 463.091 2347.04 
26 286.144 342.129 
30 100 0 
34 100 0 
38 100 0 
42 100 0 
46 100 0 
50 100 0 
3 839.391 25334.5 
7 849.93 26630.9 
11 770.349 17972.3 
15 698.862 12173.6 
19 656.764 9494.95 
23 514.577 3578.14 
27 100 0 
31 100 0 
35 100 0 
39 100 0 
43 100 0 
47 100 0 
4 782.328 19116.5 
8 765.418 17516.5 
12 697.114 12052.3 
16 688.211 11448.3 
20 644.769 8820.02 
24 393.093 1218.53 
28 100 0 
32 100 0 
36 100 0 
40 100 0 
44 100 0 
48 100 0 
