ITEM: TIMESTEP
0
ITEM: NUMBER OF SURFS
300
ITEM: BOX BOUNDS oo ro ro
-0.2 0.65
0 0.4
0 0.4
ITEM: SURFS id s_temperature f_1[*] 
1 100 0 
2 100 0 
3 100 0 
4 100 0 
5 100 0 
6 100 0 
7 100 0 
8 100 0 
9 100 0 
10 100 0 
11 100 0 
12 100 0 
13 100 0 
14 100 0 
15 100 0 
16 100 0 
17 100 0 
18 100 0 
19 100 0 
20 100 0 
21 100 0 
22 100 0 
23 100 0 
24 100 0 
25 100 0 
26 100 0 
27 100 0 
28 100 0 
29 100 0 
30 100 0 
31 100 0 
32 100 0 
33 100 0 
34 100 0 
35 100 0 
36 100 0 
37 100 0 
38 100 0 
39 100 0 
40 100 0 
41 100 0 
42 100 0 
43 100 0 
44 100 0 
45 100 0 
46 100 0 
47 100 0 
48 100 0 
49 100 0 
50 100 0 
51 100 0 
52 100 0 
53 100 0 
54 100 0 
55 100 0 
56 100 0 
57 100 0 
58 100 0 
59 100 0 
60 100 0 
61 100 0 
62 100 0 
63 100 0 
64 100 0 
65 100 0 
66 100 0 
67 100 0 
68 100 0 
69 100 0 
70 100 0 
71 100 0 
72 100 0 
73 100 0 
74 100 0 
75 100 0 
76 100 0 
77 100 0 
78 100 0 
79 100 0 
80 100 0 
81 100 0 
82 100 0 
83 100 0 
84 100 0 
85 100 0 
86 100 0 
87 100 0 
88 100 0 
89 100 0 
90 100 0 
91 100 0 
92 100 0 
93 100 0 
94 100 0 
95 100 0 
96 100 0 
97 100 0 
98 100 0 
99 100 0 
100 100 0 
101 100 0 
102 100 0 
103 100 0 
104 100 0 
105 100 0 
106 100 0 
107 100 0 
108 100 0 
109 100 0 
110 100 0 
111 100 0 
112 100 0 
113 100 0 
114 100 0 
115 100 0 
116 100 0 
117 100 0 
118 100 0 
119 100 0 
120 100 0 
121 100 0 
122 100 0 
123 100 0 
124 100 0 
125 100 0 
126 100 0 
127 100 0 
128 100 0 
129 100 0 
130 100 0 
131 100 0 
132 100 0 
133 100 0 
134 100 0 
135 100 0 
136 100 0 
137 100 0 
138 100 0 
139 100 0 
140 100 0 
141 100 0 
142 100 0 
143 100 0 
144 100 0 
145 100 0 
146 100 0 
147 100 0 
148 100 0 
149 100 0 
150 100 0 
151 100 0 
152 100 0 
153 100 0 
154 100 0 
155 100 0 
156 100 0 
157 100 0 
158 100 0 
159 100 0 
160 100 0 
161 100 0 
162 100 0 
163 100 0 
164 100 0 
165 100 0 
166 100 0 
167 100 0 
168 100 0 
169 100 0 
170 100 0 
171 100 0 
172 100 0 
173 100 0 
174 100 0 
175 100 0 
176 100 0 
177 100 0 
178 100 0 
179 100 0 
180 100 0 
181 100 0 
182 100 0 
183 100 0 
184 100 0 
185 100 0 
186 100 0 
187 100 0 
188 100 0 
189 100 0 
190 100 0 
191 100 0 
192 100 0 
193 100 0 
194 100 0 
195 100 0 
196 100 0 
197 100 0 
198 100 0 
199 100 0 
200 100 0 
201 100 0 
202 100 0 
203 100 0 
204 100 0 
205 100 0 
206 100 0 
207 100 0 
208 100 0 
209 100 0 
210 100 0 
211 100 0 
212 100 0 
213 100 0 
214 100 0 
215 100 0 
216 100 0 
217 100 0 
218 100 0 
219 100 0 
220 100 0 
221 100 0 
222 100 0 
223 100 0 
224 100 0 
225 100 0 
226 100 0 
227 100 0 
228 100 0 
229 100 0 
230 100 0 
231 100 0 
232 100 0 
233 100 0 
234 100 0 
235 100 0 
236 100 0 
237 100 0 
238 100 0 
239 100 0 
240 100 0 
241 100 0 
242 100 0 
243 100 0 
244 100 0 
245 100 0 
246 100 0 
247 100 0 
248 100 0 
249 100 0 
250 100 0 
251 100 0 
252 100 0 
253 100 0 
254 100 0 
255 100 0 
256 100 0 
257 100 0 
258 100 0 
259 100 0 
260 100 0 
261 100 0 
262 100 0 
263 100 0 
264 100 0 
265 100 0 
266 100 0 
267 100 0 
268 100 0 
269 100 0 
270 100 0 
271 100 0 
272 100 0 
273 100 0 
274 100 0 
275 100 0 
276 100 0 
277 100 0 
278 100 0 
279 100 0 
280 100 0 
281 100 0 
282 100 0 
283 100 0 
284 100 0 
285 100 0 
286 100 0 
287 100 0 
288 100 0 
289 100 0 
290 100 0 
291 100 0 
292 100 0 
293 100 0 
294 100 0 
295 100 0 
296 100 0 
297 100 0 
298 100 0 
299 100 0 
300 100 0 
ITEM: TIMESTEP
500
ITEM: NUMBER OF SURFS
300
ITEM: BOX BOUNDS oo ro ro
-0.2 0.65
0 0.4
0 0.4
ITEM: SURFS id s_temperature f_1[*] 
1 717.092 13494.4 
2 785.745 19452.7 
3 100 0 
4 100 0 
5 778.482 18743.4 
6 693.286 11789.8 
7 100 0 
8 100 0 
9 693.411 11798.2 
10 782.015 19086 
11 100 0 
12 100 0 
13 711.934 13110.3 
14 494.608 3054.2 
15 100 0 
16 100 0 
17 666.272 10056.8 
18 812.926 22287.3 
19 100 0 
20 100 0 
21 756.772 16738.5 
22 715.343 13363.2 
23 100 0 
24 100 0 
25 712.258 13134.2 
26 736.953 15052.6 
27 100 0 
28 100 0 
29 850.275 26674.2 
30 690.093 11574 
31 100 0 
32 100 0 
33 736.49 15014.8 
34 686.608 11342 
35 100 0 
36 100 0 
37 708.83 12883.2 
38 748.583 16025.6 
39 100 0 
40 100 0 
41 710.471 13002.9 
42 708.101 12830.3 
43 100 0 
44 100 0 
45 724.95 14095.7 
46 769.718 17913.6 
47 100 0 
48 100 0 
49 648.308 9015.32 
50 613.599 7234.22 
51 100 0 
52 100 0 
53 644.515 8806.17 
54 743.144 15564.9 
55 100 0 
56 100 0 
57 655.189 9404.17 
58 737.24 15076.1 
59 100 0 
60 100 0 
61 653.515 9308.43 
62 699.488 12217.3 
63 100 0 
64 100 0 
65 621.195 7599.16 
66 703.497 12499.8 
67 100 0 
68 100 0 
69 705.823 12666 
70 644.14 8785.67 
71 100 0 
72 100 0 
73 703.212 12479.6 
74 799.733 20875.3 
75 100 0 
76 100 0 
77 578.124 5700.84 
78 650.034 9111.66 
79 100 0 
80 100 0 
81 628.467 7961.3 
82 831.792 24429.4 
83 100 0 
84 100 0 
85 799.555 20856.8 
86 485.408 2833.23 
87 100 0 
88 100 0 
89 589.743 6173.14 
90 883.086 31036.1 
91 100 0 
92 100 0 
93 639.35 8527.25 
94 704.198 12549.7 
95 100 0 
96 100 0 
97 785.773 19455.5 
98 610.803 7103.29 
99 100 0 
100 100 0 
101 761.783 17186.2 
102 584.831 5970.01 
103 824.391 23571.5 
104 747.69 15949.2 
105 766.601 17625.1 
106 502.022 3241.5 
107 635.785 8338.62 
108 659.397 9648.08 
109 349.038 757.437 
110 753.694 16467.7 
111 512.255 3513.98 
112 606.48 6904.29 
113 489.375 2926.99 
114 659.132 9632.62 
115 498.567 3153.19 
116 329.426 601.016 
117 747.46 15929.7 
118 745.625 15773.8 
119 675.06 10598 
120 794.05 20288.3 
121 564.217 5171.77 
122 610.339 7081.71 
123 763.5 17341.6 
124 588.028 6101.62 
125 675.973 10655.5 
126 642.176 8679 
127 616.117 7353.71 
128 536.994 4243.58 
129 665.693 10021.9 
130 417.37 1548.6 
131 394.029 1230.17 
132 620.257 7553.38 
133 656.417 9474.85 
134 584.669 5963.4 
135 593.047 6312.64 
136 523.442 3831.14 
137 671.825 10396.3 
138 500.971 3214.45 
139 572.807 5494 
140 521.623 3778.18 
141 423.641 1643.79 
142 442.898 1963.67 
143 464.505 2375.84 
144 504.43 3304.13 
145 343.566 711.04 
146 587.919 6097.12 
147 486.202 2851.81 
148 100 0 
149 508.398 3409.34 
150 314.769 500.981 
151 360.622 863.105 
152 380.718 1072.18 
153 100 0 
154 284.405 333.888 
155 100 0 
156 100 0 
157 100 0 
158 100 0 
159 100 0 
160 100 0 
161 100 0 
162 100 0 
163 100 0 
164 100 0 
165 100 0 
166 100 0 
167 100 0 
168 100 0 
169 430.771 1757.27 
170 100 0 
171 100 0 
172 100 0 
173 100 0 
174 100 0 
175 100 0 
176 100 0 
177 100 0 
178 100 0 
179 100 0 
180 100 0 
181 100 0 
182 100 0 
183 100 0 
184 100 0 
185 100 0 
186 100 0 
187 100 0 
188 100 0 
189 100 0 
190 100 0 
191 100 0 
192 100 0 
193 100 0 
194 100 0 
195 100 0 
196 100 0 
197 100 0 
198 100 0 
199 100 0 
200 100 0 
201 519.649 3721.31 
202 839.779 25381.3 
203 777.406 18640 
204 692.786 11755.7 
205 699.134 12192.6 
206 520.885 3756.84 
207 682.199 11053.5 
208 744.334 15664.9 
209 609.978 7064.98 
210 557.713 4937.39 
211 700.146 12263.4 
212 577.984 5695.29 
213 666.95 10097.8 
214 551.554 4722.88 
215 494.834 3059.79 
216 643.691 8761.22 
217 395.164 1244.41 
218 392.744 1214.2 
219 319.824 533.946 
220 731.14 14583.3 
221 672.611 10445.1 
222 588.527 6122.38 
223 589.513 6163.52 
224 561.003 5054.94 
225 534.967 4179.88 
226 672.097 10413.2 
227 586.656 6044.89 
228 469.211 2473.59 
229 674.164 10541.9 
230 100 -224.626 
231 520.339 3741.09 
232 505.07 3320.92 
233 414.575 1507.53 
234 613.894 7248.14 
235 551.534 4722.2 
236 563.266 5136.98 
237 100 0 
238 420.979 1602.86 
239 100 0 
240 561.339 5067.04 
241 100 0 
242 380.119 1065.44 
243 424.184 1652.23 
244 508.04 3399.75 
245 100 0 
246 492.44 3001.02 
247 579.42 5752.14 
248 518.308 3683.02 
249 100 0 
250 412.677 1480.12 
251 100 0 
252 100 0 
253 100 0 
254 100 0 
255 100 0 
256 355.652 816.494 
257 100 0 
258 306.688 451.485 
259 508.142 3402.48 
260 100 0 
261 100 0 
262 100 0 
263 100 0 
264 100 0 
265 100 0 
266 427.401 1702.93 
267 100 0 
268 100 0 
269 100 0 
270 100 0 
271 100 0 
272 100 0 
273 100 0 
274 100 0 
275 100 0 
276 100 0 
277 100 0 
278 100 0 
279 100 0 
280 100 0 
281 100 0 
282 100 0 
283 100 0 
284 100 0 
285 100 0 
286 100 0 
287 100 0 
288 100 0 
289 100 0 
290 100 0 
291 100 0 
292 100 0 
293 100 0 
294 100 0 
295 100 0 
296 100 0 
297 100 0 
298 100 0 
299 100 0 
300 100 0 
ITEM: TIMESTEP
1000
ITEM: NUMBER OF SURFS
300
ITEM: BOX BOUNDS oo ro ro
-0.2 0.65
0 0.4
0 0.4
ITEM: SURFS id s_temperature f_1[*] 
1 677.306 10739.8 
2 677.46 10749.5 
3 100 0 
4 100 0 
5 732.56 14696.9 
6 799.537 20854.9 
7 100 0 
8 100 0 
9 779.33 18825.2 
10 737.896 15129.9 
11 100 0 
12 100 0 
13 663.945 9917.07 
14 566.086 5240.63 
15 100 0 
16 100 0 
17 821.815 23278.2 
18 725.13 14109.7 
19 100 0 
20 100 0 
21 748.698 16035.4 
22 761.203 17133.9 
23 100 0 
24 100 0 
25 751.716 16295.6 
26 704.029 12537.7 
27 100 0 
28 100 0 
29 802.884 21206.3 
30 752.859 16394.9 
31 100 0 
32 100 0 
33 680.258 10928.2 
34 611.339 7128.26 
35 100 0 
36 100 0 
37 656.134 9458.55 
38 800.517 20957.4 
39 100 0 
40 100 0 
41 732.972 14730 
42 749.908 16139.4 
43 100 0 
44 100 0 
45 674.482 10561.8 
46 712.611 13160.3 
47 100 0 
48 100 0 
49 616.027 7349.42 
50 537.507 4259.82 
51 100 0 
52 100 0 
53 734.149 14824.8 
54 694.141 11848 
55 100 0 
56 100 0 
57 617.094 7400.46 
58 747.478 15931.1 
59 100 0 
60 100 0 
61 627.367 7905.7 
62 655.061 9396.84 
63 100 0 
64 100 0 
65 729.265 14434.3 
66 645.577 8864.36 
67 100 0 
68 100 0 
69 467.407 2435.76 
70 797.654 20659.2 
71 100 0 
72 100 0 
73 668.101 10167.7 
74 489.518 2930.43 
75 100 0 
76 100 0 
77 518.191 3679.71 
78 595.23 6406.09 
79 100 0 
80 100 0 
81 680.488 10943 
82 646.555 8918.2 
83 100 0 
84 100 0 
85 679.016 10848.6 
86 692.869 11761.4 
87 100 0 
88 100 0 
89 759.196 16953.9 
90 597.46 6502.63 
91 100 0 
92 100 0 
93 745.059 15726 
94 598.749 6558.94 
95 100 0 
96 100 0 
97 736.489 15014.8 
98 697.223 12059.8 
99 100 0 
100 100 0 
101 660.325 9702.53 
102 481.642 2746.32 
103 746.968 15887.8 
104 526.846 3931.78 
105 854.482 27206.1 
106 478.933 2685.05 
107 716.485 13448.7 
108 428.367 1718.37 
109 548.403 4615.87 
110 587.745 6089.92 
111 673.159 10479.1 
112 689.695 11547.4 
113 643.889 8772 
114 652.907 9273.83 
115 568.658 5336.53 
116 500.342 3198.33 
117 642.474 8695.14 
118 546.583 4554.9 
119 636.356 8368.64 
120 498.791 3158.86 
121 493.013 3015.01 
122 533.884 4146.12 
123 390.332 1184.65 
124 575.76 5608.16 
125 556.642 4899.58 
126 507.953 3397.4 
127 604.457 6812.67 
128 100 0 
129 673.238 10484.1 
130 599.005 6570.15 
131 518.774 3696.31 
132 437.015 1861.4 
133 458.969 2264.58 
134 398.512 1287.13 
135 568.902 5345.69 
136 450.375 2099.67 
137 541.789 4397.18 
138 589.912 6180.2 
139 542.797 4430 
140 613.601 7234.33 
141 381.586 1081.99 
142 393.087 1218.46 
143 497.324 3121.84 
144 404.928 1372.04 
145 410.638 1451.08 
146 446.103 2021.14 
147 454.152 2171 
148 590.304 6196.63 
149 100 0 
150 100 0 
151 100 0 
152 100 0 
153 396.87 1266.03 
154 293.203 377.163 
155 436.709 1856.19 
156 318.75 526.812 
157 100 0 
158 100 0 
159 100 0 
160 100 0 
161 370.706 963.769 
162 100 0 
163 349.612 762.43 
164 100 0 
165 100 0 
166 100 0 
167 100 0 
168 100 0 
169 458.994 2265.06 
170 100 0 
171 100 0 
172 100 0 
173 100 0 
174 100 0 
175 100 0 
176 100 0 
177 100 0 
178 100 0 
179 100 0 
180 100 0 
181 100 0 
182 100 0 
183 100 0 
184 100 0 
185 100 0 
186 100 0 
187 100 0 
188 100 0 
189 100 0 
190 100 0 
191 100 0 
192 100 0 
193 100 0 
194 100 0 
195 100 0 
196 100 0 
197 100 0 
198 100 0 
199 100 0 
200 100 0 
201 678.488 10814.9 
202 753.994 16494 
203 658.63 9603.3 
204 741.775 15450.5 
205 639.924 8557.93 
206 512.258 3514.06 
207 797.747 20668.8 
208 603.185 6755.5 
209 668.586 10197.2 
210 770.765 18011.1 
211 606.854 6921.36 
212 697.741 12095.7 
213 674.579 10567.8 
214 560.416 5033.81 
215 583.757 5926.3 
216 507.788 3393 
217 660.661 9722.32 
218 729.81 14477.5 
219 772.74 18196.5 
220 629.509 8014.23 
221 675.134 10602.7 
222 437.988 1878.02 
223 595.739 6428.04 
224 577.743 5685.83 
225 665.995 10040.1 
226 535.284 4189.79 
227 432.739 1789.61 
228 482.068 2756.06 
229 50.0355 0.319866 
230 581.368 5829.86 
231 559.561 5003.15 
232 603.254 6758.58 
233 629.654 8021.62 
234 623.488 7711.98 
235 530.073 4029.01 
236 428.81 1725.5 
237 427.248 1700.49 
238 603.446 6767.18 
239 470.163 2493.72 
240 496.204 3093.83 
241 449.661 2086.39 
242 370.48 961.419 
243 448.581 2066.41 
244 380.674 1071.69 
245 393.183 1219.65 
246 342.059 698.649 
247 100 0 
248 337.201 659.792 
249 475.252 2603.45 
250 552.118 4742.22 
251 309.16 466.219 
252 100 0 
253 336.576 654.915 
254 396.103 1256.28 
255 319.712 533.202 
256 373.244 990.434 
257 389.56 1175.31 
258 100 0 
259 402.856 1344.17 
260 494.75 3057.73 
261 325.874 575.508 
262 100 0 
263 100 0 
264 355.573 815.771 
265 380.922 1074.48 
266 382.416 1091.44 
267 100 0 
268 473.722 2570.1 
269 413.35 1489.79 
270 100 0 
271 100 0 
272 100 0 
273 100 0 
274 100 0 
275 100 0 
276 100 0 
277 100 0 
278 100 0 
279 100 0 
280 100 0 
281 100 0 
282 100 0 
283 100 0 
284 100 0 
285 100 0 
286 100 0 
287 100 0 
288 100 0 
289 100 0 
290 100 0 
291 100 0 
292 100 0 
293 100 0 
294 100 0 
295 100 0 
296 100 0 
297 100 0 
298 100 0 
299 100 0 
300 100 0 
ITEM: TIMESTEP
1500
ITEM: NUMBER OF SURFS
300
ITEM: BOX BOUNDS oo ro ro
-0.2 0.65
0 0.4
0 0.4
ITEM: SURFS id s_temperature f_1[*] 
1 805.823 21518.5 
2 734.543 14856.7 
3 100 0 
4 100 0 
5 828.057 23993.6 
6 771.964 18123.6 
7 100 0 
8 100 0 
9 745.623 15773.6 
10 771.801 18108.2 
11 100 0 
12 100 0 
13 675.053 10597.6 
14 715.235 13355.1 
15 100 0 
16 100 0 
17 674.828 10583.4 
18 633.282 8208.1 
19 100 0 
20 100 0 
21 732.578 14698.4 
22 689.037 11503.4 
23 100 0 
24 100 0 
25 733.816 14798 
26 745.586 15770.5 
27 100 0 
28 100 0 
29 756.721 16733.9 
30 711.215 13057.5 
31 100 0 
32 100 0 
33 661.323 9761.34 
34 785.005 19379.5 
35 100 0 
36 100 0 
37 718.404 13593.4 
38 735.059 14898.5 
39 100 0 
40 100 0 
41 778.975 18790.9 
42 763.57 17348 
43 100 0 
44 100 0 
45 743.478 15592.9 
46 724.639 14071.5 
47 100 0 
48 100 0 
49 758.528 16894.3 
50 715.716 13391.2 
51 100 0 
52 100 0 
53 698.805 12169.6 
54 581.588 5838.7 
55 100 0 
56 100 0 
57 760.902 17106.8 
58 653.068 9282.97 
59 100 0 
60 100 0 
61 672.725 10452.1 
62 738.607 15188.3 
63 100 0 
64 100 0 
65 677.322 10740.8 
66 644.394 8799.57 
67 100 0 
68 100 0 
69 446.256 2023.9 
70 682.825 11094.1 
71 100 0 
72 100 0 
73 657.086 9513.55 
74 732.446 14687.8 
75 100 0 
76 100 0 
77 555.717 4867.08 
78 704.016 12536.8 
79 100 0 
80 100 0 
81 637.842 8447.11 
82 595.232 6406.2 
83 100 0 
84 100 0 
85 554.693 4831.31 
86 587.748 6090.01 
87 100 0 
88 100 0 
89 713.326 13213.1 
90 748.946 16056.7 
91 100 0 
92 100 0 
93 596.511 6461.42 
94 704.702 12585.7 
95 100 0 
96 100 0 
97 774.185 18333 
98 531.748 4080.16 
99 100 0 
100 100 0 
101 692.158 11713.2 
102 648.478 9024.74 
103 787.462 19623.3 
104 513.295 3542.6 
105 840.373 25453.2 
106 566.136 5242.48 
107 687.46 11398.4 
108 707.07 12755.7 
109 728.731 14392.1 
110 781.621 19047.6 
111 712.315 13138.4 
112 625.596 7816.81 
113 326.242 578.115 
114 661.552 9774.87 
115 618.988 7491.74 
116 668.63 10199.9 
117 729.763 14473.8 
118 661.435 9767.92 
119 420.496 1595.52 
120 480.213 2713.87 
121 538.046 4276.91 
122 455.667 2200.11 
123 624.705 7772.38 
124 472.799 2550.13 
125 644.718 8817.28 
126 630.339 8056.6 
127 481.651 2746.52 
128 383.676 1105.89 
129 584.521 5957.37 
130 447.672 2049.71 
131 612.951 7203.72 
132 650.788 9154.03 
133 364.636 902.181 
134 461.421 2313.37 
135 467.99 2447.95 
136 645.57 8863.95 
137 605.197 6846.05 
138 493.582 3028.94 
139 256.535 221.024 
140 100 0 
141 483.838 2796.74 
142 390.99 1192.67 
143 445.457 2009.45 
144 444.389 1990.24 
145 504.627 3309.29 
146 396.735 1264.32 
147 471.326 2518.48 
148 480.749 2726.01 
149 454.379 2175.34 
150 349.907 765.008 
151 394.966 1241.91 
152 256.355 220.404 
153 361.03 867.013 
154 461.53 2315.56 
155 100 0 
156 381.843 1084.91 
157 450.345 2099.1 
158 100 0 
159 444.24 1987.59 
160 100 0 
161 344.065 715.183 
162 100 0 
163 100 0 
164 100 0 
165 100 0 
166 456.222 2210.84 
167 431.855 1775.04 
168 100 0 
169 100 0 
170 469.362 2476.77 
171 100 0 
172 379.139 1054.5 
173 100 0 
174 100 0 
175 100 0 
176 100 0 
177 100 0 
178 100 0 
179 100 0 
180 100 0 
181 100 0 
182 100 0 
183 100 0 
184 100 0 
185 100 0 
186 100 0 
187 100 0 
188 100 0 
189 100 0 
190 100 0 
191 100 0 
192 100 0 
193 100 0 
194 100 0 
195 100 0 
196 100 0 
197 100 0 
198 100 0 
199 100 0 
200 100 0 
201 687.464 11398.7 
202 620.589 7569.53 
203 673.155 10478.9 
204 609.368 7036.74 
205 705.284 12627.3 
206 576.134 5622.76 
207 719.439 13672 
208 610.211 7075.79 
209 712.721 13168.4 
210 418.693 1568.32 
211 559.412 4997.84 
212 713.065 13193.8 
213 642.023 8670.75 
214 714.188 13277.1 
215 703.069 12469.4 
216 726.887 14246.9 
217 341.398 693.267 
218 725.008 14100.2 
219 558.975 4982.23 
220 706.844 12739.4 
221 632.892 8187.89 
222 473.151 2557.72 
223 432.482 1785.37 
224 379.027 1053.26 
225 631.174 8099.37 
226 647.916 8993.5 
227 683.913 11165 
228 585.825 6010.71 
229 589.562 6165.54 
230 596.14 6445.37 
231 477.895 2661.86 
232 525.828 3901.47 
233 608.247 6985.13 
234 503.452 3278.58 
235 586.71 6047.13 
236 372.924 987.038 
237 562.593 5112.49 
238 546.665 4557.62 
239 507.256 3378.81 
240 650.685 9148.26 
241 398.571 1287.89 
242 347.684 745.746 
243 354.46 805.608 
244 381.243 1078.11 
245 512.634 3524.39 
246 416.348 1533.49 
247 569.257 5359.06 
248 435.683 1838.81 
249 100 0 
250 419.116 1574.67 
251 100 0 
252 286.614 344.384 
253 315.332 504.578 
254 316.397 511.426 
255 100 0 
256 531.793 4081.54 
257 100 0 
258 100 0 
259 100 0 
260 100 0 
261 100 0 
262 100 0 
263 100 0 
264 100 0 
265 100 0 
266 100 0 
267 100 0 
268 100 0 
269 100 0 
270 100 0 
271 100 0 
272 100 0 
273 368.775 943.848 
274 100 0 
275 100 0 
276 100 0 
277 100 0 
278 100 0 
279 100 0 
280 100 0 
281 100 0 
282 100 0 
283 100 0 
284 317.521 518.73 
285 100 0 
286 100 0 
287 100 0 
288 100 0 
289 100 0 
290 100 0 
291 100 0 
292 100 0 
293 100 0 
294 100 0 
295 100 0 
296 100 0 
297 100 0 
298 100 0 
299 100 0 
300 100 0 
ITEM: TIMESTEP
2000
ITEM: NUMBER OF SURFS
300
ITEM: BOX BOUNDS oo ro ro
-0.2 0.65
0 0.4
0 0.4
ITEM: SURFS id s_temperature f_1[*] 
1 744.034 15639.6 
2 767.902 17745 
3 100 0 
4 100 0 
5 684.022 11172.1 
6 739.665 15275.4 
7 100 0 
8 100 0 
9 713.984 13262 
10 647.706 8981.87 
11 100 0 
12 100 0 
13 795.634 20450.7 
14 584.598 5960.53 
15 100 0 
16 100 0 
17 763.915 17379.4 
18 645.268 8847.39 
19 100 0 
20 100 0 
21 665.293 9997.86 
22 722.559 13910.6 
23 100 0 
24 100 0 
25 773.901 18306.1 
26 757.455 16798.9 
27 100 0 
28 100 0 
29 688.817 11488.7 
30 785.504 19428.9 
31 100 0 
32 100 0 
33 674.858 10585.3 
34 683.009 11106 
35 100 0 
36 100 0 
37 590.726 6214.39 
38 696.611 12017.5 
39 100 0 
40 100 0 
41 640.26 8575.92 
42 776.116 18516.6 
43 100 0 
44 100 0 
45 753.363 16438.8 
46 608.646 7003.47 
47 100 0 
48 100 0 
49 669.522 10254.5 
50 703.434 12495.3 
51 100 0 
52 100 0 
53 697.915 12107.8 
54 723.265 13965.1 
55 100 0 
56 100 0 
57 554.984 4841.44 
58 597.7 6513.08 
59 100 0 
60 100 0 
61 653.799 9324.62 
62 784.728 19352.2 
63 100 0 
64 100 0 
65 669.478 10251.8 
66 535.377 4192.69 
67 100 0 
68 100 0 
69 682.057 11044.3 
70 705.569 12647.7 
71 100 0 
72 100 0 
73 665.197 9992.05 
74 753.91 16486.7 
75 100 0 
76 100 0 
77 665.725 10023.8 
78 717.687 13539.3 
79 100 0 
80 100 0 
81 674.079 10536.5 
82 707.789 12807.7 
83 100 0 
84 100 0 
85 632.949 8190.84 
86 660.984 9741.33 
87 100 0 
88 100 0 
89 763.42 17334.3 
90 705.537 12645.4 
91 100 0 
92 100 0 
93 718.314 13586.6 
94 584.596 5960.45 
95 100 0 
96 100 0 
97 715.73 13392.2 
98 724.274 14043.2 
99 100 0 
100 100 0 
101 651.316 9183.78 
102 576.825 5649.77 
103 706.074 12684 
104 693.73 11820 
105 517.551 3661.58 
106 587.577 6082.92 
107 710.601 13012.4 
108 199.281 80.4863 
109 100 0 
110 501.242 3221.39 
111 660.557 9716.19 
112 527.015 3936.82 
113 485.127 2826.67 
114 577.666 5682.77 
115 507.522 3385.9 
116 563.443 5143.46 
117 348.98 756.934 
118 747.398 15924.4 
119 596.939 6479.99 
120 566.564 5258.35 
121 530.959 4055.99 
122 615.553 7326.85 
123 519.32 3711.89 
124 496.838 3109.66 
125 501.545 3229.19 
126 580.586 5798.55 
127 660.434 9708.93 
128 650.925 9161.76 
129 500.587 3204.59 
130 726.997 14255.5 
131 514.556 3577.53 
132 533.933 4147.64 
133 645.795 8876.32 
134 480.449 2719.21 
135 307.671 457.299 
136 582.015 5855.87 
137 421.512 1610.99 
138 411.768 1467.11 
139 507.859 3394.91 
140 243.998 180.883 
141 371.63 973.415 
142 408.249 1417.61 
143 198.562 79.3295 
144 601.262 6669.74 
145 472.93 2552.96 
146 508.015 3399.09 
147 466.71 2421.27 
148 277.35 301.974 
149 100 0 
150 550.454 4685.31 
151 425.795 1677.48 
152 370.396 960.544 
153 273.81 286.848 
154 100 0 
155 100 0 
156 100 0 
157 100 0 
158 100 0 
159 100 0 
160 100 0 
161 100 0 
162 100 0 
163 100 0 
164 170.471 43.0983 
165 353.428 796.266 
166 100 0 
167 100 0 
168 250.307 200.33 
169 100 0 
170 471.652 2525.46 
171 100 0 
172 100 0 
173 100 0 
174 257.748 225.236 
175 100 0 
176 100 0 
177 100 0 
178 100 0 
179 381.745 1083.79 
180 100 0 
181 100 0 
182 100 0 
183 100 0 
184 100 0 
185 100 0 
186 100 0 
187 100 0 
188 100 0 
189 100 0 
190 100 0 
191 100 0 
192 100 0 
193 100 0 
194 100 0 
195 100 0 
196 100 0 
197 100 0 
198 100 0 
199 100 0 
200 100 0 
201 753.12 16417.6 
202 687.709 11414.9 
203 581.839 5848.76 
204 499.192 3169.02 
205 600.566 6638.9 
206 669.501 10253.2 
207 570.661 5412.13 
208 619.374 7510.47 
209 701.77 12377.5 
210 439.363 1901.73 
211 592.794 6301.87 
212 472.575 2545.29 
213 563.162 5133.21 
214 645.472 8858.56 
215 643.299 8739.87 
216 700.632 12297.4 
217 551.357 4716.13 
218 609.589 7046.98 
219 563.399 5141.84 
220 516.642 3635.91 
221 571.785 5454.88 
222 628.31 7953.37 
223 600.841 6651.09 
224 643.742 8763.98 
225 585.185 5984.48 
226 495.102 3066.42 
227 629.305 8003.84 
228 415.993 1528.26 
229 505.63 3335.69 
230 669.657 10262.8 
231 532.298 4097.06 
232 475.184 2601.96 
233 402.46 1338.89 
234 442.962 1964.8 
235 525.848 3902.08 
236 548.912 4633.02 
237 454.387 2175.5 
238 465.427 2394.75 
239 556.106 4880.71 
240 100 0 
241 308.928 464.82 
242 464.272 2371.06 
243 490.066 2943.56 
244 333.673 632.617 
245 100 0 
246 432.621 1787.67 
247 268.398 264.834 
248 408.254 1417.67 
249 100 0 
250 424.723 1660.64 
251 100 0 
252 277.139 301.053 
253 359.568 853.057 
254 362.661 882.795 
255 313.083 490.335 
256 364.998 905.765 
257 100 0 
258 100 0 
259 483.641 2792.2 
260 100 0 
261 100 0 
262 100 0 
263 100 0 
264 204.13 88.6104 
265 100 0 
266 100 0 
267 339.527 678.194 
268 100 0 
269 100 0 
270 100 0 
271 100 0 
272 100 0 
273 100 0 
274 100 0 
275 100 0 
276 100 0 
277 100 0 
278 100 0 
279 100 0 
280 100 0 
281 100 0 
282 100 0 
283 100 0 
284 100 0 
285 100 0 
286 100 0 
287 100 0 
288 100 0 
289 100 0 
290 100 0 
291 100 0 
292 100 0 
293 100 0 
294 100 0 
295 100 0 
296 100 0 
297 100 0 
298 100 0 
299 100 0 
300 100 0 
