ITEM: TIMESTEP
5000
ITEM: NUMBER OF SURFS
300
ITEM: BOX BOUNDS oo ro ro
-0.2 0.65
0 0.4
0 0.4
ITEM: SURFS id temp f_1[*] 
1 100 17257.1 
9 100 14436.4 
17 100 9002.53 
25 100 14457.4 
33 100 12388.3 
41 100 14257.1 
49 100 14320.1 
57 100 9437.53 
65 100 12938.4 
73 100 8902.88 
81 100 10743.5 
89 100 9326.37 
97 100 8088.32 
105 100 10517.9 
113 100 6399.93 
121 100 5896.24 
129 100 3929.51 
137 100 2753.85 
145 100 1404.04 
153 100 870.836 
161 100 53.9991 
169 100 307.923 
177 100 48.7603 
185 100 0 
193 100 0 
201 100 8929.85 
209 100 6338.32 
217 100 6653.94 
225 100 4940.93 
233 100 3829.87 
241 100 1607.22 
249 100 1907.12 
257 100 901.647 
265 100 392.996 
273 100 224.847 
281 100 83.8869 
289 100 54.3944 
297 100 0 
2 100 15341.8 
10 100 13443.1 
18 100 8985.52 
26 100 17136.5 
34 100 12033.4 
42 100 12948.1 
50 100 12172.4 
58 100 8728.19 
66 100 11389.8 
74 100 12456.7 
82 100 12904.6 
90 100 11398.6 
98 100 8489.34 
106 100 8801.69 
114 100 6991.97 
122 100 5080.09 
130 100 4279.13 
138 100 3475.84 
146 100 1164.23 
154 100 711.419 
162 100 139.007 
170 100 492.561 
178 100 251.197 
186 100 42.1292 
194 100 0 
202 100 8370.03 
210 100 7638.46 
218 100 4622.31 
226 100 4119.98 
234 100 2531.35 
242 100 1822.89 
250 100 1219.33 
258 100 751.827 
266 100 737.593 
274 100 207.912 
282 100 13.6215 
290 100 0 
298 100 39.4132 
3 100 0 
11 100 0 
19 100 0 
27 100 0 
35 100 0 
43 100 0 
51 100 0 
59 100 0 
67 100 0 
75 100 0 
83 100 0 
91 100 23.1432 
99 100 0 
107 100 8197.44 
115 100 8722.72 
123 100 4581.59 
131 100 3943.8 
139 100 3093.27 
147 100 1116.23 
155 100 525.703 
163 100 587.506 
171 100 0 
179 100 136.648 
187 100 69.5653 
195 100 0.875796 
203 100 9423.34 
211 100 7009.14 
219 100 7068.9 
227 100 4539.08 
235 100 3114.64 
243 100 1646.39 
251 100 1076.28 
259 100 889.448 
267 100 249.577 
275 100 81.0276 
283 100 99.4508 
291 100 0 
299 100 0 
4 100 0 
12 100 0 
20 100 0 
28 100 0 
36 100 0 
44 100 0 
52 100 0 
60 100 74.3123 
68 100 0 
76 100 0 
84 100 0 
92 100 0 
100 100 0 
108 100 7508.24 
116 100 7149.71 
124 100 4657.19 
132 100 3199.85 
140 100 2691.79 
148 100 1530.18 
156 100 1631.2 
164 100 293.871 
172 100 133.602 
180 100 559.699 
188 100 0 
196 100 0 
204 100 9297.83 
212 100 6178.57 
220 100 5508.61 
228 100 3919.05 
236 100 3475.61 
244 100 1605.93 
252 100 704.649 
260 100 679.798 
268 100 396.178 
276 100 39.2588 
284 100 198.606 
292 100 0 
300 100 163.037 
5 100 15082.3 
13 100 11354.4 
21 100 16517.1 
29 100 17196.1 
37 100 8889.33 
45 100 16190.3 
53 100 11821.7 
61 100 10450.8 
69 100 11103 
77 100 10812.1 
85 100 10550.7 
93 100 8372.55 
101 100 9770.5 
109 100 6463.76 
117 100 6254.75 
125 100 3421.42 
133 100 4373.22 
141 100 1375.84 
149 100 1446.53 
157 100 954.273 
165 100 434.171 
173 100 0 
181 100 0 
189 100 0 
197 100 0 
205 100 9147.35 
213 100 7470.41 
221 100 5589.16 
229 100 2363.43 
237 100 3224.98 
245 100 1719.73 
253 100 899.795 
261 100 516.017 
269 100 703.156 
277 100 332.551 
285 100 0 
293 100 0 
6 100 15876 
14 100 13117.3 
22 100 17323.3 
30 100 12321.8 
38 100 9590.12 
46 100 16136.4 
54 100 11684.4 
62 100 11641.4 
70 100 11212.3 
78 100 11550.2 
86 100 10828 
94 100 8577.18 
102 100 8931.21 
110 100 7152.97 
118 100 6778.95 
126 100 5079.58 
134 100 3008.23 
142 100 1546.46 
150 100 1929.91 
158 100 744.197 
166 100 511.211 
174 100 182.343 
182 100 21.5508 
190 100 480.788 
198 100 0 
206 100 9975.06 
214 100 7428.26 
222 100 4667.63 
230 100 3526.05 
238 100 3650.52 
246 100 1492.55 
254 100 1537.94 
262 100 675.455 
270 100 882.257 
278 100 276.005 
286 100 90.0896 
294 100 95.3067 
7 100 0 
15 100 0 
23 100 0 
31 100 0 
39 100 0 
47 100 0 
55 100 0 
63 100 0 
71 100 0 
79 100 0 
87 100 0 
95 100 0 
103 100 9275.72 
111 100 6457 
119 100 7693.44 
127 100 5417.67 
135 100 2874.3 
143 100 1845.44 
151 100 740.603 
159 100 731.603 
167 100 278.292 
175 100 44.4814 
183 100 0 
191 100 0 
199 100 395.511 
207 100 10571.2 
215 100 5795.88 
223 100 4849.62 
231 100 2834.55 
239 100 3877.67 
247 100 1444.19 
255 100 1007.07 
263 100 252.749 
271 100 117.489 
279 100 126.375 
287 100 185.806 
295 100 0 
8 100 0 
16 100 0 
24 100 0 
32 100 0 
40 100 0 
48 100 0 
56 100 0 
64 100 0 
72 100 0 
80 100 0 
88 100 0 
96 100 0 
104 100 9981.45 
112 100 6648.59 
120 100 6372.15 
128 100 6549.94 
136 100 2607.57 
144 100 1718.16 
152 100 761.629 
160 100 814.171 
168 100 487.888 
176 100 72.1287 
184 100 0 
192 100 0 
200 100 0 
208 100 8612.64 
216 100 8581.28 
224 100 4053.86 
232 100 2616.51 
240 100 1611.35 
248 100 1171.5 
256 100 656.625 
264 100 267.156 
272 100 82.2447 
280 100 1.78242 
288 100 241.715 
296 100 0 
