ITEM: TIMESTEP
5000
ITEM: NUMBER OF SURFS
300
ITEM: BOX BOUNDS oo ro ro
-0.2 0.65
0 0.4
0 0.4
ITEM: SURFS id temp f_1[*] 
1 100 15780.8 
2 100 16297.9 
3 100 0 
4 100 0 
5 100 15002 
6 100 14287.2 
7 100 0 
8 100 0 
9 100 13568.5 
10 100 15409.2 
11 100 0 
12 100 0 
13 100 13966.9 
14 100 14215.9 
15 100 0 
16 100 0 
17 100 11148.1 
18 100 11452.1 
19 100 0 
20 100 0 
21 100 17032.3 
22 100 16244.8 
23 100 0 
24 100 0 
25 100 15816.5 
26 100 14671.6 
27 100 0 
28 100 0 
29 100 15937.8 
30 100 13380.9 
31 100 0 
32 100 0 
33 100 14909.5 
34 100 10163.1 
35 100 0 
36 100 0 
37 100 13126.9 
38 100 10121.5 
39 100 0 
40 100 0 
41 100 16935.3 
42 100 13742.1 
43 100 0 
44 100 0 
45 100 14914.4 
46 100 13868.4 
47 100 0 
48 100 0 
49 100 10755.5 
50 100 12619.2 
51 100 0 
52 100 0 
53 100 11617.3 
54 100 10104.4 
55 100 0 
56 100 0 
57 100 10287 
58 100 9472.21 
59 100 66.9224 
60 100 0 
61 100 9512.57 
62 100 13208.7 
63 100 0 
64 100 0 
65 100 11178.8 
66 100 10126.1 
67 100 0 
68 100 0 
69 100 11916.6 
70 100 9716.19 
71 100 0 
72 100 0 
73 100 9483.82 
74 100 9185.29 
75 100 35.428 
76 100 0 
77 100 12131.9 
78 100 7560.77 
79 100 0 
80 100 0 
81 100 13727.1 
82 100 8134.03 
83 100 0 
84 100 0 
85 100 10590.6 
86 100 9149.65 
87 100 0 
88 100 0 
89 100 9484.25 
90 100 10013.6 
91 100 0 
92 100 0 
93 100 8954.77 
94 100 9978.1 
95 100 0 
96 100 0 
97 100 6998.66 
98 100 9591.83 
99 100 0 
100 100 250.319 
101 100 9708.46 
102 100 8601.63 
103 100 9135.75 
104 100 8943.16 
105 100 8754.49 
106 100 10678.2 
107 100 8746.45 
108 100 8971.98 
109 100 4524.86 
110 100 7832.91 
111 100 7934.52 
112 100 6262.77 
113 100 5201.87 
114 100 6072.18 
115 100 8992.38 
116 100 6742.89 
117 100 7082.18 
118 100 5720.48 
119 100 5650.96 
120 100 6121.73 
121 100 4806.6 
122 100 5166.73 
123 100 4411.16 
124 100 4940.57 
125 100 5479.27 
126 100 4453.57 
127 100 4337.24 
128 100 3451.3 
129 100 4383.76 
130 100 4513.24 
131 100 3905.52 
132 100 3196.75 
133 100 3897.78 
134 100 2978.78 
135 100 2926.44 
136 100 3540.09 
137 100 2701.98 
138 100 3402.25 
139 100 3225.92 
140 100 3351.92 
141 100 1682.46 
142 100 2244.94 
143 100 1844.25 
144 100 1994.09 
145 100 1421.95 
146 100 2386.04 
147 100 1871.52 
148 100 763.33 
149 100 2314.5 
150 100 2197.1 
151 100 717.722 
152 100 826.487 
153 100 462.285 
154 100 549.444 
155 100 999.682 
156 100 1001.37 
157 100 1215.54 
158 100 453.043 
159 100 755.642 
160 100 520.022 
161 100 491.787 
162 100 292.002 
163 100 446.34 
164 100 190.014 
165 100 97.6956 
166 100 590.169 
167 100 908.815 
168 100 577.831 
169 100 382.517 
170 100 487.899 
171 100 145.284 
172 100 219.924 
173 100 99.557 
174 100 178.401 
175 100 89.0593 
176 100 208.287 
177 100 305.428 
178 100 102.819 
179 100 246.76 
180 100 0 
181 100 62.449 
182 100 41.533 
183 100 26.8025 
184 100 31.3014 
185 100 138.608 
186 100 21.0179 
187 100 0 
188 100 0 
189 100 0 
190 100 391.434 
191 100 0 
192 100 0 
193 100 0 
194 100 0 
195 100 0 
196 100 0 
197 100 0 
198 100 0 
199 100 0 
200 100 11.9995 
201 100 8686.93 
202 100 11885.2 
203 100 10032.2 
204 100 8108.94 
205 100 6692.42 
206 100 6805.15 
207 100 8639.43 
208 100 9997.85 
209 100 7064.93 
210 100 6332.42 
211 100 6791.31 
212 100 8153.82 
213 100 7943.3 
214 100 6186.68 
215 100 8072.18 
216 100 8438.3 
217 100 7219.57 
218 100 6722.84 
219 100 6117.12 
220 100 7889.82 
221 100 5550.04 
222 100 5401.73 
223 100 4829.28 
224 100 4258.92 
225 100 5059.72 
226 100 3849.52 
227 100 3848.89 
228 100 4326.5 
229 100 3366.3 
230 100 3505.49 
231 100 3085.41 
232 100 2997.12 
233 100 3375.26 
234 100 3553.43 
235 100 3053.53 
236 100 2348.73 
237 100 3095.41 
238 100 3227.16 
239 100 2533.3 
240 100 2754.53 
241 100 1465.78 
242 100 2200.52 
243 100 1645.2 
244 100 3355.84 
245 100 1947.46 
246 100 1881.53 
247 100 1514.34 
248 100 1694.36 
249 100 1506.24 
250 100 1549.66 
251 100 775.689 
252 100 850.58 
253 100 1075.47 
254 100 957.056 
255 100 565.306 
256 100 963.235 
257 100 946.118 
258 100 737.654 
259 100 331.747 
260 100 706.099 
261 100 165.949 
262 100 209.036 
263 100 341.188 
264 100 191.241 
265 100 78.5175 
266 100 172.505 
267 100 506.396 
268 100 328.594 
269 100 410.405 
270 100 608.524 
271 100 0.415988 
272 100 93.8208 
273 100 152.653 
274 100 162.412 
275 100 196.295 
276 100 0 
277 100 11.2908 
278 100 340.221 
279 100 119.323 
280 100 0 
281 100 64.6794 
282 100 0 
283 100 19.4443 
284 100 3.74914 
285 100 174.595 
286 100 141.578 
287 100 0 
288 100 340.889 
289 100 0 
290 100 79.6285 
291 100 0 
292 100 0 
293 100 0 
294 100 0 
295 100 0 
296 100 0 
297 100 0 
298 100 0 
299 100 0 
300 100 0 
