ITEM: TIMESTEP
0
ITEM: NUMBER OF CELLS
40000
ITEM: BOX BOUNDS oo oo pp
-2 2
-2 2
-0.5 0.5
ITEM: CELLS id xc yc f_1[1] f_1[2] f_1[3] f_1[4] f_1[5] f_1[6] f_1[7] f_1[8] f_1[9] f_1[10] f_4 f_3[1] f_3[2] 
1 -1.99 -1.99 0 0 0 0 0 0 0 0 0 0 0 0 0 
2 -1.97 -1.99 0 0 0 0 0 0 0 0 0 0 0 0 0 
3 -1.95 -1.99 0 0 0 0 0 0 0 0 0 0 0 0 0 
4 -1.93 -1.99 0 0 0 0 0 0 0 0 0 0 0 0 0 
5 -1.91 -1.99 0 0 0 0 0 0 0 0 0 0 0 0 0 
6 -1.89 -1.99 0 0 0 0 0 0 0 0 0 0 0 0 0 
7 -1.87 -1.99 0 0 0 0 0 0 0 0 0 0 0 0 0 
8 -1.85 -1.99 0 0 0 0 0 0 0 0 0 0 0 0 0 
9 -1.83 -1.99 0 0 0 0 0 0 0 0 0 0 0 0 0 
10 -1.81 -1.99 0 0 0 0 0 0 0 0 0 0 0 0 0 
11 -1.79 -1.99 0 0 0 0 0 0 0 0 0 0 0 0 0 
12 -1.77 -1.99 0 0 0 0 0 0 0 0 0 0 0 0 0 
13 -1.75 -1.99 0 0 0 0 0 0 0 0 0 0 0 0 0 
14 -1.73 -1.99 0 0 0 0 0 0 0 0 0 0 0 0 0 
15 -1.71 -1.99 0 0 0 0 0 0 0 0 0 0 0 0 0 
16 -1.69 -1.99 0 0 0 0 0 0 0 0 0 0 0 0 0 
17 -1.67 -1.99 0 0 0 0 0 0 0 0 0 0 0 0 0 
18 -1.65 -1.99 0 0 0 0 0 0 0 0 0 0 0 0 0 
19 -1.63 -1.99 0 0 0 0 0 0 0 0 0 0 0 0 0 
20 -1.61 -1.99 0 0 0 0 0 0 0 0 0 0 0 0 0 
21 -1.59 -1.99 0 0 0 0 0 0 0 0 0 0 0 0 0 
22 -1.57 -1.99 0 0 0 0 0 0 0 0 0 0 0 0 0 
23 -1.55 -1.99 0 0 0 0 0 0 0 0 0 0 0 0 0 
24 -1.53 -1.99 0 0 0 0 0 0 0 0 0 0 0 0 0 
25 -1.51 -1.99 0 0 0 0 0 0 0 0 0 0 0 0 0 
26 -1.49 -1.99 0 0 0 0 0 0 0 0 0 0 0 0 0 
27 -1.47 -1.99 0 0 0 0 0 0 0 0 0 0 0 0 0 
28 -1.45 -1.99 0 0 0 0 0 0 0 0 0 0 0 0 0 
29 -1.43 -1.99 0 0 0 0 0 0 0 0 0 0 0 0 0 
30 -1.41 -1.99 0 0 0 0 0 0 0 0 0 0 0 0 0 
31 -1.39 -1.99 0 0 0 0 0 0 0 0 0 0 0 0 0 
32 -1.37 -1.99 0 0 0 0 0 0 0 0 0 0 0 0 0 
33 -1.35 -1.99 0 0 0 0 0 0 0 0 0 0 0 0 0 
34 -1.33 -1.99 0 0 0 0 0 0 0 0 0 0 0 0 0 
35 -1.31 -1.99 0 0 0 0 0 0 0 0 0 0 0 0 0 
36 -1.29 -1.99 0 0 0 0 0 0 0 0 0 0 0 0 0 
37 -1.27 -1.99 0 0 0 0 0 0 0 0 0 0 0 0 0 
38 -1.25 -1.99 0 0 0 0 0 0 0 0 0 0 0 0 0 
39 -1.23 -1.99 0 0 0 0 0 0 0 0 0 0 0 0 0 
40 -1.21 -1.99 0 0 0 0 0 0 0 0 0 0 0 0 0 
41 -1.19 -1.99 0 0 0 0 0 0 0 0 0 0 0 0 0 
42 -1.17 -1.99 0 0 0 0 0 0 0 0 0 0 0 0 0 
43 -1.15 -1.99 0 0 0 0 0 0 0 0 0 0 0 0 0 
44 -1.13 -1.99 0 0 0 0 0 0 0 0 0 0 0 0 0 
45 -1.11 -1.99 0 0 0 0 0 0 0 0 0 0 0 0 0 
46 -1.09 -1.99 0 0 0 0 0 0 0 0 0 0 0 0 0 
47 -1.07 -1.99 0 0 0 0 0 0 0 0 0 0 0 0 0 
48 -1.05 -1.99 0 0 0 0 0 0 0 0 0 0 0 0 0 
49 -1.03 -1.99 0 0 0 0 0 0 0 0 0 0 0 0 0 
50 -1.01 -1.99 0 0 0 0 0 0 0 0 0 0 0 0 0 
51 -0.99 -1.99 0 0 0 0 0 0 0 0 0 0 0 0 0 
52 -0.97 -1.99 0 0 0 0 0 0 0 0 0 0 0 0 0 
53 -0.95 -1.99 0 0 0 0 0 0 0 0 0 0 0 0 0 
54 -0.93 -1.99 0 0 0 0 0 0 0 0 0 0 0 0 0 
55 -0.91 -1.99 0 0 0 0 0 0 0 0 0 0 0 0 0 
56 -0.89 -1.99 0 0 0 0 0 0 0 0 0 0 0 0 0 
57 -0.87 -1.99 0 0 0 0 0 0 0 0 0 0 0 0 0 
58 -0.85 -1.99 0 0 0 0 0 0 0 0 0 0 0 0 0 
59 -0.83 -1.99 0 0 0 0 0 0 0 0 0 0 0 0 0 
60 -0.81 -1.99 0 0 0 0 0 0 0 0 0 0 0 0 0 
61 -0.79 -1.99 0 0 0 0 0 0 0 0 0 0 0 0 0 
62 -0.77 -1.99 0 0 0 0 0 0 0 0 0 0 0 0 0 
63 -0.75 -1.99 0 0 0 0 0 0 0 0 0 0 0 0 0 
64 -0.73 -1.99 0 0 0 0 0 0 0 0 0 0 0 0 0 
65 -0.71 -1.99 0 0 0 0 0 0 0 0 0 0 0 0 0 
66 -0.69 -1.99 0 0 0 0 0 0 0 0 0 0 0 0 0 
67 -0.67 -1.99 0 0 0 0 0 0 0 0 0 0 0 0 0 
68 -0.65 -1.99 0 0 0 0 0 0 0 0 0 0 0 0 0 
69 -0.63 -1.99 0 0 0 0 0 0 0 0 0 0 0 0 0 
70 -0.61 -1.99 0 0 0 0 0 0 0 0 0 0 0 0 0 
71 -0.59 -1.99 0 0 0 0 0 0 0 0 0 0 0 0 0 
72 -0.57 -1.99 0 0 0 0 0 0 0 0 0 0 0 0 0 
73 -0.55 -1.99 0 0 0 0 0 0 0 0 0 0 0 0 0 
74 -0.53 -1.99 0 0 0 0 0 0 0 0 0 0 0 0 0 
75 -0.51 -1.99 0 0 0 0 0 0 0 0 0 0 0 0 0 
76 -0.49 -1.99 0 0 0 0 0 0 0 0 0 0 0 0 0 
77 -0.47 -1.99 0 0 0 0 0 0 0 0 0 0 0 0 0 
78 -0.45 -1.99 0 0 0 0 0 0 0 0 0 0 0 0 0 
79 -0.43 -1.99 0 0 0 0 0 0 0 0 0 0 0 0 0 
80 -0.41 -1.99 0 0 0 0 0 0 0 0 0 0 0 0 0 
81 -0.39 -1.99 0 0 0 0 0 0 0 0 0 0 0 0 0 
82 -0.37 -1.99 0 0 0 0 0 0 0 0 0 0 0 0 0 
83 -0.35 -1.99 0 0 0 0 0 0 0 0 0 0 0 0 0 
84 -0.33 -1.99 0 0 0 0 0 0 0 0 0 0 0 0 0 
85 -0.31 -1.99 0 0 0 0 0 0 0 0 0 0 0 0 0 
86 -0.29 -1.99 0 0 0 0 0 0 0 0 0 0 0 0 0 
87 -0.27 -1.99 0 0 0 0 0 0 0 0 0 0 0 0 0 
88 -0.25 -1.99 0 0 0 0 0 0 0 0 0 0 0 0 0 
89 -0.23 -1.99 0 0 0 0 0 0 0 0 0 0 0 0 0 
90 -0.21 -1.99 0 0 0 0 0 0 0 0 0 0 0 0 0 
91 -0.19 -1.99 0 0 0 0 0 0 0 0 0 0 0 0 0 
92 -0.17 -1.99 0 0 0 0 0 0 0 0 0 0 0 0 0 
93 -0.15 -1.99 0 0 0 0 0 0 0 0 0 0 0 0 0 
94 -0.13 -1.99 0 0 0 0 0 0 0 0 0 0 0 0 0 
95 -0.11 -1.99 0 0 0 0 0 0 0 0 0 0 0 0 0 
96 -0.09 -1.99 0 0 0 0 0 0 0 0 0 0 0 0 0 
97 -0.07 -1.99 0 0 0 0 0 0 0 0 0 0 0 0 0 
98 -0.05 -1.99 0 0 0 0 0 0 0 0 0 0 0 0 0 
99 -0.03 -1.99 0 0 0 0 0 0 0 0 0 0 0 0 0 
100 -0.01 -1.99 0 0 0 0 0 0 0 0 0 0 0 0 0 
101 0.01 -1.99 0 0 0 0 0 0 0 0 0 0 0 0 0 
102 0.03 -1.99 0 0 0 0 0 0 0 0 0 0 0 0 0 
103 0.05 -1.99 0 0 0 0 0 0 0 0 0 0 0 0 0 
104 0.07 -1.99 0 0 0 0 0 0 0 0 0 0 0 0 0 
105 0.09 -1.99 0 0 0 0 0 0 0 0 0 0 0 0 0 
106 0.11 -1.99 0 0 0 0 0 0 0 0 0 0 0 0 0 
107 0.13 -1.99 0 0 0 0 0 0 0 0 0 0 0 0 0 
108 0.15 -1.99 0 0 0 0 0 0 0 0 0 0 0 0 0 
109 0.17 -1.99 0 0 0 0 0 0 0 0 0 0 0 0 0 
110 0.19 -1.99 0 0 0 0 0 0 0 0 0 0 0 0 0 
111 0.21 -1.99 0 0 0 0 0 0 0 0 0 0 0 0 0 
112 0.23 -1.99 0 0 0 0 0 0 0 0 0 0 0 0 0 
113 0.25 -1.99 0 0 0 0 0 0 0 0 0 0 0 0 0 
114 0.27 -1.99 0 0 0 0 0 0 0 0 0 0 0 0 0 
115 0.29 -1.99 0 0 0 0 0 0 0 0 0 0 0 0 0 
116 0.31 -1.99 0 0 0 0 0 0 0 0 0 0 0 0 0 
117 0.33 -1.99 0 0 0 0 0 0 0 0 0 0 0 0 0 
118 0.35 -1.99 0 0 0 0 0 0 0 0 0 0 0 0 0 
119 0.37 -1.99 0 0 0 0 0 0 0 0 0 0 0 0 0 
120 0.39 -1.99 0 0 0 0 0 0 0 0 0 0 0 0 0 
121 0.41 -1.99 0 0 0 0 0 0 0 0 0 0 0 0 0 
122 0.43 -1.99 0 0 0 0 0 0 0 0 0 0 0 0 0 
123 0.45 -1.99 0 0 0 0 0 0 0 0 0 0 0 0 0 
124 0.47 -1.99 0 0 0 0 0 0 0 0 0 0 0 0 0 
125 0.49 -1.99 0 0 0 0 0 0 0 0 0 0 0 0 0 
126 0.51 -1.99 0 0 0 0 0 0 0 0 0 0 0 0 0 
127 0.53 -1.99 0 0 0 0 0 0 0 0 0 0 0 0 0 
128 0.55 -1.99 0 0 0 0 0 0 0 0 0 0 0 0 0 
129 0.57 -1.99 0 0 0 0 0 0 0 0 0 0 0 0 0 
130 0.59 -1.99 0 0 0 0 0 0 0 0 0 0 0 0 0 
131 0.61 -1.99 0 0 0 0 0 0 0 0 0 0 0 0 0 
132 0.63 -1.99 0 0 0 0 0 0 0 0 0 0 0 0 0 
133 0.65 -1.99 0 0 0 0 0 0 0 0 0 0 0 0 0 
134 0.67 -1.99 0 0 0 0 0 0 0 0 0 0 0 0 0 
135 0.69 -1.99 0 0 0 0 0 0 0 0 0 0 0 0 0 
136 0.71 -1.99 0 0 0 0 0 0 0 0 0 0 0 0 0 
137 0.73 -1.99 0 0 0 0 0 0 0 0 0 0 0 0 0 
138 0.75 -1.99 0 0 0 0 0 0 0 0 0 0 0 0 0 
139 0.77 -1.99 0 0 0 0 0 0 0 0 0 0 0 0 0 
140 0.79 -1.99 0 0 0 0 0 0 0 0 0 0 0 0 0 
141 0.81 -1.99 0 0 0 0 0 0 0 0 0 0 0 0 0 
142 0.83 -1.99 0 0 0 0 0 0 0 0 0 0 0 0 0 
143 0.85 -1.99 0 0 0 0 0 0 0 0 0 0 0 0 0 
144 0.87 -1.99 0 0 0 0 0 0 0 0 0 0 0 0 0 
145 0.89 -1.99 0 0 0 0 0 0 0 0 0 0 0 0 0 
146 0.91 -1.99 0 0 0 0 0 0 0 0 0 0 0 0 0 
147 0.93 -1.99 0 0 0 0 0 0 0 0 0 0 0 0 0 
148 0.95 -1.99 0 0 0 0 0 0 0 0 0 0 0 0 0 
149 0.97 -1.99 0 0 0 0 0 0 0 0 0 0 0 0 0 
150 0.99 -1.99 0 0 0 0 0 0 0 0 0 0 0 0 0 
151 1.01 -1.99 0 0 0 0 0 0 0 0 0 0 0 0 0 
152 1.03 -1.99 0 0 0 0 0 0 0 0 0 0 0 0 0 
153 1.05 -1.99 0 0 0 0 0 0 0 0 0 0 0 0 0 
154 1.07 -1.99 0 0 0 0 0 0 0 0 0 0 0 0 0 
155 1.09 -1.99 0 0 0 0 0 0 0 0 0 0 0 0 0 
156 1.11 -1.99 0 0 0 0 0 0 0 0 0 0 0 0 0 
157 1.13 -1.99 0 0 0 0 0 0 0 0 0 0 0 0 0 
158 1.15 -1.99 0 0 0 0 0 0 0 0 0 0 0 0 0 
159 1.17 -1.99 0 0 0 0 0 0 0 0 0 0 0 0 0 
160 1.19 -1.99 0 0 0 0 0 0 0 0 0 0 0 0 0 
161 1.21 -1.99 0 0 0 0 0 0 0 0 0 0 0 0 0 
162 1.23 -1.99 0 0 0 0 0 0 0 0 0 0 0 0 0 
163 1.25 -1.99 0 0 0 0 0 0 0 0 0 0 0 0 0 
164 1.27 -1.99 0 0 0 0 0 0 0 0 0 0 0 0 0 
165 1.29 -1.99 0 0 0 0 0 0 0 0 0 0 0 0 0 
166 1.31 -1.99 0 0 0 0 0 0 0 0 0 0 0 0 0 
167 1.33 -1.99 0 0 0 0 0 0 0 0 0 0 0 0 0 
168 1.35 -1.99 0 0 0 0 0 0 0 0 0 0 0 0 0 
169 1.37 -1.99 0 0 0 0 0 0 0 0 0 0 0 0 0 
170 1.39 -1.99 0 0 0 0 0 0 0 0 0 0 0 0 0 
171 1.41 -1.99 0 0 0 0 0 0 0 0 0 0 0 0 0 
172 1.43 -1.99 0 0 0 0 0 0 0 0 0 0 0 0 0 
173 1.45 -1.99 0 0 0 0 0 0 0 0 0 0 0 0 0 
174 1.47 -1.99 0 0 0 0 0 0 0 0 0 0 0 0 0 
175 1.49 -1.99 0 0 0 0 0 0 0 0 0 0 0 0 0 
176 1.51 -1.99 0 0 0 0 0 0 0 0 0 0 0 0 0 
177 1.53 -1.99 0 0 0 0 0 0 0 0 0 0 0 0 0 
178 1.55 -1.99 0 0 0 0 0 0 0 0 0 0 0 0 0 
179 1.57 -1.99 0 0 0 0 0 0 0 0 0 0 0 0 0 
180 1.59 -1.99 0 0 0 0 0 0 0 0 0 0 0 0 0 
181 1.61 -1.99 0 0 0 0 0 0 0 0 0 0 0 0 0 
182 1.63 -1.99 0 0 0 0 0 0 0 0 0 0 0 0 0 
183 1.65 -1.99 0 0 0 0 0 0 0 0 0 0 0 0 0 
184 1.67 -1.99 0 0 0 0 0 0 0 0 0 0 0 0 0 
185 1.69 -1.99 0 0 0 0 0 0 0 0 0 0 0 0 0 
186 1.71 -1.99 0 0 0 0 0 0 0 0 0 0 0 0 0 
187 1.73 -1.99 0 0 0 0 0 0 0 0 0 0 0 0 0 
188 1.75 -1.99 0 0 0 0 0 0 0 0 0 0 0 0 0 
189 1.77 -1.99 0 0 0 0 0 0 0 0 0 0 0 0 0 
190 1.79 -1.99 0 0 0 0 0 0 0 0 0 0 0 0 0 
191 1.81 -1.99 0 0 0 0 0 0 0 0 0 0 0 0 0 
192 1.83 -1.99 0 0 0 0 0 0 0 0 0 0 0 0 0 
193 1.85 -1.99 0 0 0 0 0 0 0 0 0 0 0 0 0 
194 1.87 -1.99 0 0 0 0 0 0 0 0 0 0 0 0 0 
195 1.89 -1.99 0 0 0 0 0 0 0 0 0 0 0 0 0 
196 1.91 -1.99 0 0 0 0 0 0 0 0 0 0 0 0 0 
197 1.93 -1.99 0 0 0 0 0 0 0 0 0 0 0 0 0 
198 1.95 -1.99 0 0 0 0 0 0 0 0 0 0 0 0 0 
199 1.97 -1.99 0 0 0 0 0 0 0 0 0 0 0 0 0 
200 1.99 -1.99 0 0 0 0 0 0 0 0 0 0 0 0 0 
201 -1.99 -1.97 0 0 0 0 0 0 0 0 0 0 0 0 0 
202 -1.97 -1.97 0 0 0 0 0 0 0 0 0 0 0 0 0 
203 -1.95 -1.97 0 0 0 0 0 0 0 0 0 0 0 0 0 
204 -1.93 -1.97 0 0 0 0 0 0 0 0 0 0 0 0 0 
205 -1.91 -1.97 0 0 0 0 0 0 0 0 0 0 0 0 0 
206 -1.89 -1.97 0 0 0 0 0 0 0 0 0 0 0 0 0 
207 -1.87 -1.97 0 0 0 0 0 0 0 0 0 0 0 0 0 
208 -1.85 -1.97 0 0 0 0 0 0 0 0 0 0 0 0 0 
209 -1.83 -1.97 0 0 0 0 0 0 0 0 0 0 0 0 0 
210 -1.81 -1.97 0 0 0 0 0 0 0 0 0 0 0 0 0 
211 -1.79 -1.97 0 0 0 0 0 0 0 0 0 0 0 0 0 
212 -1.77 -1.97 0 0 0 0 0 0 0 0 0 0 0 0 0 
213 -1.75 -1.97 0 0 0 0 0 0 0 0 0 0 0 0 0 
214 -1.73 -1.97 0 0 0 0 0 0 0 0 0 0 0 0 0 
215 -1.71 -1.97 0 0 0 0 0 0 0 0 0 0 0 0 0 
216 -1.69 -1.97 0 0 0 0 0 0 0 0 0 0 0 0 0 
217 -1.67 -1.97 0 0 0 0 0 0 0 0 0 0 0 0 0 
218 -1.65 -1.97 0 0 0 0 0 0 0 0 0 0 0 0 0 
219 -1.63 -1.97 0 0 0 0 0 0 0 0 0 0 0 0 0 
220 -1.61 -1.97 0 0 0 0 0 0 0 0 0 0 0 0 0 
221 -1.59 -1.97 0 0 0 0 0 0 0 0 0 0 0 0 0 
222 -1.57 -1.97 0 0 0 0 0 0 0 0 0 0 0 0 0 
223 -1.55 -1.97 0 0 0 0 0 0 0 0 0 0 0 0 0 
224 -1.53 -1.97 0 0 0 0 0 0 0 0 0 0 0 0 0 
225 -1.51 -1.97 0 0 0 0 0 0 0 0 0 0 0 0 0 
226 -1.49 -1.97 0 0 0 0 0 0 0 0 0 0 0 0 0 
227 -1.47 -1.97 0 0 0 0 0 0 0 0 0 0 0 0 0 
228 -1.45 -1.97 0 0 0 0 0 0 0 0 0 0 0 0 0 
229 -1.43 -1.97 0 0 0 0 0 0 0 0 0 0 0 0 0 
230 -1.41 -1.97 0 0 0 0 0 0 0 0 0 0 0 0 0 
231 -1.39 -1.97 0 0 0 0 0 0 0 0 0 0 0 0 0 
232 -1.37 -1.97 0 0 0 0 0 0 0 0 0 0 0 0 0 
233 -1.35 -1.97 0 0 0 0 0 0 0 0 0 0 0 0 0 
234 -1.33 -1.97 0 0 0 0 0 0 0 0 0 0 0 0 0 
235 -1.31 -1.97 0 0 0 0 0 0 0 0 0 0 0 0 0 
236 -1.29 -1.97 0 0 0 0 0 0 0 0 0 0 0 0 0 
237 -1.27 -1.97 0 0 0 0 0 0 0 0 0 0 0 0 0 
238 -1.25 -1.97 0 0 0 0 0 0 0 0 0 0 0 0 0 
239 -1.23 -1.97 0 0 0 0 0 0 0 0 0 0 0 0 0 
240 -1.21 -1.97 0 0 0 0 0 0 0 0 0 0 0 0 0 
241 -1.19 -1.97 0 0 0 0 0 0 0 0 0 0 0 0 0 
242 -1.17 -1.97 0 0 0 0 0 0 0 0 0 0 0 0 0 
243 -1.15 -1.97 0 0 0 0 0 0 0 0 0 0 0 0 0 
244 -1.13 -1.97 0 0 0 0 0 0 0 0 0 0 0 0 0 
245 -1.11 -1.97 0 0 0 0 0 0 0 0 0 0 0 0 0 
246 -1.09 -1.97 0 0 0 0 0 0 0 0 0 0 0 0 0 
247 -1.07 -1.97 0 0 0 0 0 0 0 0 0 0 0 0 0 
248 -1.05 -1.97 0 0 0 0 0 0 0 0 0 0 0 0 0 
249 -1.03 -1.97 0 0 0 0 0 0 0 0 0 0 0 0 0 
250 -1.01 -1.97 0 0 0 0 0 0 0 0 0 0 0 0 0 
251 -0.99 -1.97 0 0 0 0 0 0 0 0 0 0 0 0 0 
252 -0.97 -1.97 0 0 0 0 0 0 0 0 0 0 0 0 0 
253 -0.95 -1.97 0 0 0 0 0 0 0 0 0 0 0 0 0 
254 -0.93 -1.97 0 0 0 0 0 0 0 0 0 0 0 0 0 
255 -0.91 -1.97 0 0 0 0 0 0 0 0 0 0 0 0 0 
256 -0.89 -1.97 0 0 0 0 0 0 0 0 0 0 0 0 0 
257 -0.87 -1.97 0 0 0 0 0 0 0 0 0 0 0 0 0 
258 -0.85 -1.97 0 0 0 0 0 0 0 0 0 0 0 0 0 
259 -0.83 -1.97 0 0 0 0 0 0 0 0 0 0 0 0 0 
260 -0.81 -1.97 0 0 0 0 0 0 0 0 0 0 0 0 0 
261 -0.79 -1.97 0 0 0 0 0 0 0 0 0 0 0 0 0 
262 -0.77 -1.97 0 0 0 0 0 0 0 0 0 0 0 0 0 
263 -0.75 -1.97 0 0 0 0 0 0 0 0 0 0 0 0 0 
264 -0.73 -1.97 0 0 0 0 0 0 0 0 0 0 0 0 0 
265 -0.71 -1.97 0 0 0 0 0 0 0 0 0 0 0 0 0 
266 -0.69 -1.97 0 0 0 0 0 0 0 0 0 0 0 0 0 
267 -0.67 -1.97 0 0 0 0 0 0 0 0 0 0 0 0 0 
268 -0.65 -1.97 0 0 0 0 0 0 0 0 0 0 0 0 0 
269 -0.63 -1.97 0 0 0 0 0 0 0 0 0 0 0 0 0 
270 -0.61 -1.97 0 0 0 0 0 0 0 0 0 0 0 0 0 
271 -0.59 -1.97 0 0 0 0 0 0 0 0 0 0 0 0 0 
272 -0.57 -1.97 0 0 0 0 0 0 0 0 0 0 0 0 0 
273 -0.55 -1.97 0 0 0 0 0 0 0 0 0 0 0 0 0 
274 -0.53 -1.97 0 0 0 0 0 0 0 0 0 0 0 0 0 
275 -0.51 -1.97 0 0 0 0 0 0 0 0 0 0 0 0 0 
276 -0.49 -1.97 0 0 0 0 0 0 0 0 0 0 0 0 0 
277 -0.47 -1.97 0 0 0 0 0 0 0 0 0 0 0 0 0 
278 -0.45 -1.97 0 0 0 0 0 0 0 0 0 0 0 0 0 
279 -0.43 -1.97 0 0 0 0 0 0 0 0 0 0 0 0 0 
280 -0.41 -1.97 0 0 0 0 0 0 0 0 0 0 0 0 0 
281 -0.39 -1.97 0 0 0 0 0 0 0 0 0 0 0 0 0 
282 -0.37 -1.97 0 0 0 0 0 0 0 0 0 0 0 0 0 
283 -0.35 -1.97 0 0 0 0 0 0 0 0 0 0 0 0 0 
284 -0.33 -1.97 0 0 0 0 0 0 0 0 0 0 0 0 0 
285 -0.31 -1.97 0 0 0 0 0 0 0 0 0 0 0 0 0 
286 -0.29 -1.97 0 0 0 0 0 0 0 0 0 0 0 0 0 
287 -0.27 -1.97 0 0 0 0 0 0 0 0 0 0 0 0 0 
288 -0.25 -1.97 0 0 0 0 0 0 0 0 0 0 0 0 0 
289 -0.23 -1.97 0 0 0 0 0 0 0 0 0 0 0 0 0 
290 -0.21 -1.97 0 0 0 0 0 0 0 0 0 0 0 0 0 
291 -0.19 -1.97 0 0 0 0 0 0 0 0 0 0 0 0 0 
292 -0.17 -1.97 0 0 0 0 0 0 0 0 0 0 0 0 0 
293 -0.15 -1.97 0 0 0 0 0 0 0 0 0 0 0 0 0 
294 -0.13 -1.97 0 0 0 0 0 0 0 0 0 0 0 0 0 
295 -0.11 -1.97 0 0 0 0 0 0 0 0 0 0 0 0 0 
296 -0.09 -1.97 0 0 0 0 0 0 0 0 0 0 0 0 0 
297 -0.07 -1.97 0 0 0 0 0 0 0 0 0 0 0 0 0 
298 -0.05 -1.97 0 0 0 0 0 0 0 0 0 0 0 0 0 
299 -0.03 -1.97 0 0 0 0 0 0 0 0 0 0 0 0 0 
300 -0.01 -1.97 0 0 0 0 0 0 0 0 0 0 0 0 0 
301 0.01 -1.97 0 0 0 0 0 0 0 0 0 0 0 0 0 
302 0.03 -1.97 0 0 0 0 0 0 0 0 0 0 0 0 0 
303 0.05 -1.97 0 0 0 0 0 0 0 0 0 0 0 0 0 
304 0.07 -1.97 0 0 0 0 0 0 0 0 0 0 0 0 0 
305 0.09 -1.97 0 0 0 0 0 0 0 0 0 0 0 0 0 
306 0.11 -1.97 0 0 0 0 0 0 0 0 0 0 0 0 0 
307 0.13 -1.97 0 0 0 0 0 0 0 0 0 0 0 0 0 
308 0.15 -1.97 0 0 0 0 0 0 0 0 0 0 0 0 0 
309 0.17 -1.97 0 0 0 0 0 0 0 0 0 0 0 0 0 
310 0.19 -1.97 0 0 0 0 0 0 0 0 0 0 0 0 0 
311 0.21 -1.97 0 0 0 0 0 0 0 0 0 0 0 0 0 
312 0.23 -1.97 0 0 0 0 0 0 0 0 0 0 0 0 0 
313 0.25 -1.97 0 0 0 0 0 0 0 0 0 0 0 0 0 
314 0.27 -1.97 0 0 0 0 0 0 0 0 0 0 0 0 0 
315 0.29 -1.97 0 0 0 0 0 0 0 0 0 0 0 0 0 
316 0.31 -1.97 0 0 0 0 0 0 0 0 0 0 0 0 0 
317 0.33 -1.97 0 0 0 0 0 0 0 0 0 0 0 0 0 
318 0.35 -1.97 0 0 0 0 0 0 0 0 0 0 0 0 0 
319 0.37 -1.97 0 0 0 0 0 0 0 0 0 0 0 0 0 
320 0.39 -1.97 0 0 0 0 0 0 0 0 0 0 0 0 0 
321 0.41 -1.97 0 0 0 0 0 0 0 0 0 0 0 0 0 
322 0.43 -1.97 0 0 0 0 0 0 0 0 0 0 0 0 0 
323 0.45 -1.97 0 0 0 0 0 0 0 0 0 0 0 0 0 
324 0.47 -1.97 0 0 0 0 0 0 0 0 0 0 0 0 0 
325 0.49 -1.97 0 0 0 0 0 0 0 0 0 0 0 0 0 
326 0.51 -1.97 0 0 0 0 0 0 0 0 0 0 0 0 0 
327 0.53 -1.97 0 0 0 0 0 0 0 0 0 0 0 0 0 
328 0.55 -1.97 0 0 0 0 0 0 0 0 0 0 0 0 0 
329 0.57 -1.97 0 0 0 0 0 0 0 0 0 0 0 0 0 
330 0.59 -1.97 0 0 0 0 0 0 0 0 0 0 0 0 0 
331 0.61 -1.97 0 0 0 0 0 0 0 0 0 0 0 0 0 
332 0.63 -1.97 0 0 0 0 0 0 0 0 0 0 0 0 0 
333 0.65 -1.97 0 0 0 0 0 0 0 0 0 0 0 0 0 
334 0.67 -1.97 0 0 0 0 0 0 0 0 0 0 0 0 0 
335 0.69 -1.97 0 0 0 0 0 0 0 0 0 0 0 0 0 
336 0.71 -1.97 0 0 0 0 0 0 0 0 0 0 0 0 0 
337 0.73 -1.97 0 0 0 0 0 0 0 0 0 0 0 0 0 
338 0.75 -1.97 0 0 0 0 0 0 0 0 0 0 0 0 0 
339 0.77 -1.97 0 0 0 0 0 0 0 0 0 0 0 0 0 
340 0.79 -1.97 0 0 0 0 0 0 0 0 0 0 0 0 0 
341 0.81 -1.97 0 0 0 0 0 0 0 0 0 0 0 0 0 
342 0.83 -1.97 0 0 0 0 0 0 0 0 0 0 0 0 0 
343 0.85 -1.97 0 0 0 0 0 0 0 0 0 0 0 0 0 
344 0.87 -1.97 0 0 0 0 0 0 0 0 0 0 0 0 0 
345 0.89 -1.97 0 0 0 0 0 0 0 0 0 0 0 0 0 
346 0.91 -1.97 0 0 0 0 0 0 0 0 0 0 0 0 0 
347 0.93 -1.97 0 0 0 0 0 0 0 0 0 0 0 0 0 
348 0.95 -1.97 0 0 0 0 0 0 0 0 0 0 0 0 0 
349 0.97 -1.97 0 0 0 0 0 0 0 0 0 0 0 0 0 
350 0.99 -1.97 0 0 0 0 0 0 0 0 0 0 0 0 0 
351 1.01 -1.97 0 0 0 0 0 0 0 0 0 0 0 0 0 
352 1.03 -1.97 0 0 0 0 0 0 0 0 0 0 0 0 0 
353 1.05 -1.97 0 0 0 0 0 0 0 0 0 0 0 0 0 
354 1.07 -1.97 0 0 0 0 0 0 0 0 0 0 0 0 0 
355 1.09 -1.97 0 0 0 0 0 0 0 0 0 0 0 0 0 
356 1.11 -1.97 0 0 0 0 0 0 0 0 0 0 0 0 0 
357 1.13 -1.97 0 0 0 0 0 0 0 0 0 0 0 0 0 
358 1.15 -1.97 0 0 0 0 0 0 0 0 0 0 0 0 0 
359 1.17 -1.97 0 0 0 0 0 0 0 0 0 0 0 0 0 
360 1.19 -1.97 0 0 0 0 0 0 0 0 0 0 0 0 0 
361 1.21 -1.97 0 0 0 0 0 0 0 0 0 0 0 0 0 
362 1.23 -1.97 0 0 0 0 0 0 0 0 0 0 0 0 0 
363 1.25 -1.97 0 0 0 0 0 0 0 0 0 0 0 0 0 
364 1.27 -1.97 0 0 0 0 0 0 0 0 0 0 0 0 0 
365 1.29 -1.97 0 0 0 0 0 0 0 0 0 0 0 0 0 
366 1.31 -1.97 0 0 0 0 0 0 0 0 0 0 0 0 0 
367 1.33 -1.97 0 0 0 0 0 0 0 0 0 0 0 0 0 
368 1.35 -1.97 0 0 0 0 0 0 0 0 0 0 0 0 0 
369 1.37 -1.97 0 0 0 0 0 0 0 0 0 0 0 0 0 
370 1.39 -1.97 0 0 0 0 0 0 0 0 0 0 0 0 0 
371 1.41 -1.97 0 0 0 0 0 0 0 0 0 0 0 0 0 
372 1.43 -1.97 0 0 0 0 0 0 0 0 0 0 0 0 0 
373 1.45 -1.97 0 0 0 0 0 0 0 0 0 0 0 0 0 
374 1.47 -1.97 0 0 0 0 0 0 0 0 0 0 0 0 0 
375 1.49 -1.97 0 0 0 0 0 0 0 0 0 0 0 0 0 
376 1.51 -1.97 0 0 0 0 0 0 0 0 0 0 0 0 0 
377 1.53 -1.97 0 0 0 0 0 0 0 0 0 0 0 0 0 
378 1.55 -1.97 0 0 0 0 0 0 0 0 0 0 0 0 0 
379 1.57 -1.97 0 0 0 0 0 0 0 0 0 0 0 0 0 
380 1.59 -1.97 0 0 0 0 0 0 0 0 0 0 0 0 0 
381 1.61 -1.97 0 0 0 0 0 0 0 0 0 0 0 0 0 
382 1.63 -1.97 0 0 0 0 0 0 0 0 0 0 0 0 0 
383 1.65 -1.97 0 0 0 0 0 0 0 0 0 0 0 0 0 
384 1.67 -1.97 0 0 0 0 0 0 0 0 0 0 0 0 0 
385 1.69 -1.97 0 0 0 0 0 0 0 0 0 0 0 0 0 
386 1.71 -1.97 0 0 0 0 0 0 0 0 0 0 0 0 0 
387 1.73 -1.97 0 0 0 0 0 0 0 0 0 0 0 0 0 
388 1.75 -1.97 0 0 0 0 0 0 0 0 0 0 0 0 0 
389 1.77 -1.97 0 0 0 0 0 0 0 0 0 0 0 0 0 
390 1.79 -1.97 0 0 0 0 0 0 0 0 0 0 0 0 0 
391 1.81 -1.97 0 0 0 0 0 0 0 0 0 0 0 0 0 
392 1.83 -1.97 0 0 0 0 0 0 0 0 0 0 0 0 0 
393 1.85 -1.97 0 0 0 0 0 0 0 0 0 0 0 0 0 
394 1.87 -1.97 0 0 0 0 0 0 0 0 0 0 0 0 0 
395 1.89 -1.97 0 0 0 0 0 0 0 0 0 0 0 0 0 
396 1.91 -1.97 0 0 0 0 0 0 0 0 0 0 0 0 0 
397 1.93 -1.97 0 0 0 0 0 0 0 0 0 0 0 0 0 
398 1.95 -1.97 0 0 0 0 0 0 0 0 0 0 0 0 0 
399 1.97 -1.97 0 0 0 0 0 0 0 0 0 0 0 0 0 
400 1.99 -1.97 0 0 0 0 0 0 0 0 0 0 0 0 0 
401 -1.99 -1.95 0 0 0 0 0 0 0 0 0 0 0 0 0 
402 -1.97 -1.95 0 0 0 0 0 0 0 0 0 0 0 0 0 
403 -1.95 -1.95 0 0 0 0 0 0 0 0 0 0 0 0 0 
404 -1.93 -1.95 0 0 0 0 0 0 0 0 0 0 0 0 0 
405 -1.91 -1.95 0 0 0 0 0 0 0 0 0 0 0 0 0 
406 -1.89 -1.95 0 0 0 0 0 0 0 0 0 0 0 0 0 
407 -1.87 -1.95 0 0 0 0 0 0 0 0 0 0 0 0 0 
408 -1.85 -1.95 0 0 0 0 0 0 0 0 0 0 0 0 0 
409 -1.83 -1.95 0 0 0 0 0 0 0 0 0 0 0 0 0 
410 -1.81 -1.95 0 0 0 0 0 0 0 0 0 0 0 0 0 
411 -1.79 -1.95 0 0 0 0 0 0 0 0 0 0 0 0 0 
412 -1.77 -1.95 0 0 0 0 0 0 0 0 0 0 0 0 0 
413 -1.75 -1.95 0 0 0 0 0 0 0 0 0 0 0 0 0 
414 -1.73 -1.95 0 0 0 0 0 0 0 0 0 0 0 0 0 
415 -1.71 -1.95 0 0 0 0 0 0 0 0 0 0 0 0 0 
416 -1.69 -1.95 0 0 0 0 0 0 0 0 0 0 0 0 0 
417 -1.67 -1.95 0 0 0 0 0 0 0 0 0 0 0 0 0 
418 -1.65 -1.95 0 0 0 0 0 0 0 0 0 0 0 0 0 
419 -1.63 -1.95 0 0 0 0 0 0 0 0 0 0 0 0 0 
420 -1.61 -1.95 0 0 0 0 0 0 0 0 0 0 0 0 0 
421 -1.59 -1.95 0 0 0 0 0 0 0 0 0 0 0 0 0 
422 -1.57 -1.95 0 0 0 0 0 0 0 0 0 0 0 0 0 
423 -1.55 -1.95 0 0 0 0 0 0 0 0 0 0 0 0 0 
424 -1.53 -1.95 0 0 0 0 0 0 0 0 0 0 0 0 0 
425 -1.51 -1.95 0 0 0 0 0 0 0 0 0 0 0 0 0 
426 -1.49 -1.95 0 0 0 0 0 0 0 0 0 0 0 0 0 
427 -1.47 -1.95 0 0 0 0 0 0 0 0 0 0 0 0 0 
428 -1.45 -1.95 0 0 0 0 0 0 0 0 0 0 0 0 0 
429 -1.43 -1.95 0 0 0 0 0 0 0 0 0 0 0 0 0 
430 -1.41 -1.95 0 0 0 0 0 0 0 0 0 0 0 0 0 
431 -1.39 -1.95 0 0 0 0 0 0 0 0 0 0 0 0 0 
432 -1.37 -1.95 0 0 0 0 0 0 0 0 0 0 0 0 0 
433 -1.35 -1.95 0 0 0 0 0 0 0 0 0 0 0 0 0 
434 -1.33 -1.95 0 0 0 0 0 0 0 0 0 0 0 0 0 
435 -1.31 -1.95 0 0 0 0 0 0 0 0 0 0 0 0 0 
436 -1.29 -1.95 0 0 0 0 0 0 0 0 0 0 0 0 0 
437 -1.27 -1.95 0 0 0 0 0 0 0 0 0 0 0 0 0 
438 -1.25 -1.95 0 0 0 0 0 0 0 0 0 0 0 0 0 
439 -1.23 -1.95 0 0 0 0 0 0 0 0 0 0 0 0 0 
440 -1.21 -1.95 0 0 0 0 0 0 0 0 0 0 0 0 0 
441 -1.19 -1.95 0 0 0 0 0 0 0 0 0 0 0 0 0 
442 -1.17 -1.95 0 0 0 0 0 0 0 0 0 0 0 0 0 
443 -1.15 -1.95 0 0 0 0 0 0 0 0 0 0 0 0 0 
444 -1.13 -1.95 0 0 0 0 0 0 0 0 0 0 0 0 0 
445 -1.11 -1.95 0 0 0 0 0 0 0 0 0 0 0 0 0 
446 -1.09 -1.95 0 0 0 0 0 0 0 0 0 0 0 0 0 
447 -1.07 -1.95 0 0 0 0 0 0 0 0 0 0 0 0 0 
448 -1.05 -1.95 0 0 0 0 0 0 0 0 0 0 0 0 0 
449 -1.03 -1.95 0 0 0 0 0 0 0 0 0 0 0 0 0 
450 -1.01 -1.95 0 0 0 0 0 0 0 0 0 0 0 0 0 
451 -0.99 -1.95 0 0 0 0 0 0 0 0 0 0 0 0 0 
452 -0.97 -1.95 0 0 0 0 0 0 0 0 0 0 0 0 0 
453 -0.95 -1.95 0 0 0 0 0 0 0 0 0 0 0 0 0 
454 -0.93 -1.95 0 0 0 0 0 0 0 0 0 0 0 0 0 
455 -0.91 -1.95 0 0 0 0 0 0 0 0 0 0 0 0 0 
456 -0.89 -1.95 0 0 0 0 0 0 0 0 0 0 0 0 0 
457 -0.87 -1.95 0 0 0 0 0 0 0 0 0 0 0 0 0 
458 -0.85 -1.95 0 0 0 0 0 0 0 0 0 0 0 0 0 
459 -0.83 -1.95 0 0 0 0 0 0 0 0 0 0 0 0 0 
460 -0.81 -1.95 0 0 0 0 0 0 0 0 0 0 0 0 0 
461 -0.79 -1.95 0 0 0 0 0 0 0 0 0 0 0 0 0 
462 -0.77 -1.95 0 0 0 0 0 0 0 0 0 0 0 0 0 
463 -0.75 -1.95 0 0 0 0 0 0 0 0 0 0 0 0 0 
464 -0.73 -1.95 0 0 0 0 0 0 0 0 0 0 0 0 0 
465 -0.71 -1.95 0 0 0 0 0 0 0 0 0 0 0 0 0 
466 -0.69 -1.95 0 0 0 0 0 0 0 0 0 0 0 0 0 
467 -0.67 -1.95 0 0 0 0 0 0 0 0 0 0 0 0 0 
468 -0.65 -1.95 0 0 0 0 0 0 0 0 0 0 0 0 0 
469 -0.63 -1.95 0 0 0 0 0 0 0 0 0 0 0 0 0 
470 -0.61 -1.95 0 0 0 0 0 0 0 0 0 0 0 0 0 
471 -0.59 -1.95 0 0 0 0 0 0 0 0 0 0 0 0 0 
472 -0.57 -1.95 0 0 0 0 0 0 0 0 0 0 0 0 0 
473 -0.55 -1.95 0 0 0 0 0 0 0 0 0 0 0 0 0 
474 -0.53 -1.95 0 0 0 0 0 0 0 0 0 0 0 0 0 
475 -0.51 -1.95 0 0 0 0 0 0 0 0 0 0 0 0 0 
476 -0.49 -1.95 0 0 0 0 0 0 0 0 0 0 0 0 0 
477 -0.47 -1.95 0 0 0 0 0 0 0 0 0 0 0 0 0 
478 -0.45 -1.95 0 0 0 0 0 0 0 0 0 0 0 0 0 
479 -0.43 -1.95 0 0 0 0 0 0 0 0 0 0 0 0 0 
480 -0.41 -1.95 0 0 0 0 0 0 0 0 0 0 0 0 0 
481 -0.39 -1.95 0 0 0 0 0 0 0 0 0 0 0 0 0 
482 -0.37 -1.95 0 0 0 0 0 0 0 0 0 0 0 0 0 
483 -0.35 -1.95 0 0 0 0 0 0 0 0 0 0 0 0 0 
484 -0.33 -1.95 0 0 0 0 0 0 0 0 0 0 0 0 0 
485 -0.31 -1.95 0 0 0 0 0 0 0 0 0 0 0 0 0 
486 -0.29 -1.95 0 0 0 0 0 0 0 0 0 0 0 0 0 
487 -0.27 -1.95 0 0 0 0 0 0 0 0 0 0 0 0 0 
488 -0.25 -1.95 0 0 0 0 0 0 0 0 0 0 0 0 0 
489 -0.23 -1.95 0 0 0 0 0 0 0 0 0 0 0 0 0 
490 -0.21 -1.95 0 0 0 0 0 0 0 0 0 0 0 0 0 
491 -0.19 -1.95 0 0 0 0 0 0 0 0 0 0 0 0 0 
492 -0.17 -1.95 0 0 0 0 0 0 0 0 0 0 0 0 0 
493 -0.15 -1.95 0 0 0 0 0 0 0 0 0 0 0 0 0 
494 -0.13 -1.95 0 0 0 0 0 0 0 0 0 0 0 0 0 
495 -0.11 -1.95 0 0 0 0 0 0 0 0 0 0 0 0 0 
496 -0.09 -1.95 0 0 0 0 0 0 0 0 0 0 0 0 0 
497 -0.07 -1.95 0 0 0 0 0 0 0 0 0 0 0 0 0 
498 -0.05 -1.95 0 0 0 0 0 0 0 0 0 0 0 0 0 
499 -0.03 -1.95 0 0 0 0 0 0 0 0 0 0 0 0 0 
500 -0.01 -1.95 0 0 0 0 0 0 0 0 0 0 0 0 0 
501 0.01 -1.95 0 0 0 0 0 0 0 0 0 0 0 0 0 
502 0.03 -1.95 0 0 0 0 0 0 0 0 0 0 0 0 0 
503 0.05 -1.95 0 0 0 0 0 0 0 0 0 0 0 0 0 
504 0.07 -1.95 0 0 0 0 0 0 0 0 0 0 0 0 0 
505 0.09 -1.95 0 0 0 0 0 0 0 0 0 0 0 0 0 
506 0.11 -1.95 0 0 0 0 0 0 0 0 0 0 0 0 0 
507 0.13 -1.95 0 0 0 0 0 0 0 0 0 0 0 0 0 
508 0.15 -1.95 0 0 0 0 0 0 0 0 0 0 0 0 0 
509 0.17 -1.95 0 0 0 0 0 0 0 0 0 0 0 0 0 
510 0.19 -1.95 0 0 0 0 0 0 0 0 0 0 0 0 0 
511 0.21 -1.95 0 0 0 0 0 0 0 0 0 0 0 0 0 
512 0.23 -1.95 0 0 0 0 0 0 0 0 0 0 0 0 0 
513 0.25 -1.95 0 0 0 0 0 0 0 0 0 0 0 0 0 
514 0.27 -1.95 0 0 0 0 0 0 0 0 0 0 0 0 0 
515 0.29 -1.95 0 0 0 0 0 0 0 0 0 0 0 0 0 
516 0.31 -1.95 0 0 0 0 0 0 0 0 0 0 0 0 0 
517 0.33 -1.95 0 0 0 0 0 0 0 0 0 0 0 0 0 
518 0.35 -1.95 0 0 0 0 0 0 0 0 0 0 0 0 0 
519 0.37 -1.95 0 0 0 0 0 0 0 0 0 0 0 0 0 
520 0.39 -1.95 0 0 0 0 0 0 0 0 0 0 0 0 0 
521 0.41 -1.95 0 0 0 0 0 0 0 0 0 0 0 0 0 
522 0.43 -1.95 0 0 0 0 0 0 0 0 0 0 0 0 0 
523 0.45 -1.95 0 0 0 0 0 0 0 0 0 0 0 0 0 
524 0.47 -1.95 0 0 0 0 0 0 0 0 0 0 0 0 0 
525 0.49 -1.95 0 0 0 0 0 0 0 0 0 0 0 0 0 
526 0.51 -1.95 0 0 0 0 0 0 0 0 0 0 0 0 0 
527 0.53 -1.95 0 0 0 0 0 0 0 0 0 0 0 0 0 
528 0.55 -1.95 0 0 0 0 0 0 0 0 0 0 0 0 0 
529 0.57 -1.95 0 0 0 0 0 0 0 0 0 0 0 0 0 
530 0.59 -1.95 0 0 0 0 0 0 0 0 0 0 0 0 0 
531 0.61 -1.95 0 0 0 0 0 0 0 0 0 0 0 0 0 
532 0.63 -1.95 0 0 0 0 0 0 0 0 0 0 0 0 0 
533 0.65 -1.95 0 0 0 0 0 0 0 0 0 0 0 0 0 
534 0.67 -1.95 0 0 0 0 0 0 0 0 0 0 0 0 0 
535 0.69 -1.95 0 0 0 0 0 0 0 0 0 0 0 0 0 
536 0.71 -1.95 0 0 0 0 0 0 0 0 0 0 0 0 0 
537 0.73 -1.95 0 0 0 0 0 0 0 0 0 0 0 0 0 
538 0.75 -1.95 0 0 0 0 0 0 0 0 0 0 0 0 0 
539 0.77 -1.95 0 0 0 0 0 0 0 0 0 0 0 0 0 
540 0.79 -1.95 0 0 0 0 0 0 0 0 0 0 0 0 0 
541 0.81 -1.95 0 0 0 0 0 0 0 0 0 0 0 0 0 
542 0.83 -1.95 0 0 0 0 0 0 0 0 0 0 0 0 0 
543 0.85 -1.95 0 0 0 0 0 0 0 0 0 0 0 0 0 
544 0.87 -1.95 0 0 0 0 0 0 0 0 0 0 0 0 0 
545 0.89 -1.95 0 0 0 0 0 0 0 0 0 0 0 0 0 
546 0.91 -1.95 0 0 0 0 0 0 0 0 0 0 0 0 0 
547 0.93 -1.95 0 0 0 0 0 0 0 0 0 0 0 0 0 
548 0.95 -1.95 0 0 0 0 0 0 0 0 0 0 0 0 0 
549 0.97 -1.95 0 0 0 0 0 0 0 0 0 0 0 0 0 
550 0.99 -1.95 0 0 0 0 0 0 0 0 0 0 0 0 0 
551 1.01 -1.95 0 0 0 0 0 0 0 0 0 0 0 0 0 
552 1.03 -1.95 0 0 0 0 0 0 0 0 0 0 0 0 0 
553 1.05 -1.95 0 0 0 0 0 0 0 0 0 0 0 0 0 
554 1.07 -1.95 0 0 0 0 0 0 0 0 0 0 0 0 0 
555 1.09 -1.95 0 0 0 0 0 0 0 0 0 0 0 0 0 
556 1.11 -1.95 0 0 0 0 0 0 0 0 0 0 0 0 0 
557 1.13 -1.95 0 0 0 0 0 0 0 0 0 0 0 0 0 
558 1.15 -1.95 0 0 0 0 0 0 0 0 0 0 0 0 0 
559 1.17 -1.95 0 0 0 0 0 0 0 0 0 0 0 0 0 
560 1.19 -1.95 0 0 0 0 0 0 0 0 0 0 0 0 0 
561 1.21 -1.95 0 0 0 0 0 0 0 0 0 0 0 0 0 
562 1.23 -1.95 0 0 0 0 0 0 0 0 0 0 0 0 0 
563 1.25 -1.95 0 0 0 0 0 0 0 0 0 0 0 0 0 
564 1.27 -1.95 0 0 0 0 0 0 0 0 0 0 0 0 0 
565 1.29 -1.95 0 0 0 0 0 0 0 0 0 0 0 0 0 
566 1.31 -1.95 0 0 0 0 0 0 0 0 0 0 0 0 0 
567 1.33 -1.95 0 0 0 0 0 0 0 0 0 0 0 0 0 
568 1.35 -1.95 0 0 0 0 0 0 0 0 0 0 0 0 0 
569 1.37 -1.95 0 0 0 0 0 0 0 0 0 0 0 0 0 
570 1.39 -1.95 0 0 0 0 0 0 0 0 0 0 0 0 0 
571 1.41 -1.95 0 0 0 0 0 0 0 0 0 0 0 0 0 
572 1.43 -1.95 0 0 0 0 0 0 0 0 0 0 0 0 0 
573 1.45 -1.95 0 0 0 0 0 0 0 0 0 0 0 0 0 
574 1.47 -1.95 0 0 0 0 0 0 0 0 0 0 0 0 0 
575 1.49 -1.95 0 0 0 0 0 0 0 0 0 0 0 0 0 
576 1.51 -1.95 0 0 0 0 0 0 0 0 0 0 0 0 0 
577 1.53 -1.95 0 0 0 0 0 0 0 0 0 0 0 0 0 
578 1.55 -1.95 0 0 0 0 0 0 0 0 0 0 0 0 0 
579 1.57 -1.95 0 0 0 0 0 0 0 0 0 0 0 0 0 
580 1.59 -1.95 0 0 0 0 0 0 0 0 0 0 0 0 0 
581 1.61 -1.95 0 0 0 0 0 0 0 0 0 0 0 0 0 
582 1.63 -1.95 0 0 0 0 0 0 0 0 0 0 0 0 0 
583 1.65 -1.95 0 0 0 0 0 0 0 0 0 0 0 0 0 
584 1.67 -1.95 0 0 0 0 0 0 0 0 0 0 0 0 0 
585 1.69 -1.95 0 0 0 0 0 0 0 0 0 0 0 0 0 
586 1.71 -1.95 0 0 0 0 0 0 0 0 0 0 0 0 0 
587 1.73 -1.95 0 0 0 0 0 0 0 0 0 0 0 0 0 
588 1.75 -1.95 0 0 0 0 0 0 0 0 0 0 0 0 0 
589 1.77 -1.95 0 0 0 0 0 0 0 0 0 0 0 0 0 
590 1.79 -1.95 0 0 0 0 0 0 0 0 0 0 0 0 0 
591 1.81 -1.95 0 0 0 0 0 0 0 0 0 0 0 0 0 
592 1.83 -1.95 0 0 0 0 0 0 0 0 0 0 0 0 0 
593 1.85 -1.95 0 0 0 0 0 0 0 0 0 0 0 0 0 
594 1.87 -1.95 0 0 0 0 0 0 0 0 0 0 0 0 0 
595 1.89 -1.95 0 0 0 0 0 0 0 0 0 0 0 0 0 
596 1.91 -1.95 0 0 0 0 0 0 0 0 0 0 0 0 0 
597 1.93 -1.95 0 0 0 0 0 0 0 0 0 0 0 0 0 
598 1.95 -1.95 0 0 0 0 0 0 0 0 0 0 0 0 0 
599 1.97 -1.95 0 0 0 0 0 0 0 0 0 0 0 0 0 
600 1.99 -1.95 0 0 0 0 0 0 0 0 0 0 0 0 0 
601 -1.99 -1.93 0 0 0 0 0 0 0 0 0 0 0 0 0 
602 -1.97 -1.93 0 0 0 0 0 0 0 0 0 0 0 0 0 
603 -1.95 -1.93 0 0 0 0 0 0 0 0 0 0 0 0 0 
604 -1.93 -1.93 0 0 0 0 0 0 0 0 0 0 0 0 0 
605 -1.91 -1.93 0 0 0 0 0 0 0 0 0 0 0 0 0 
606 -1.89 -1.93 0 0 0 0 0 0 0 0 0 0 0 0 0 
607 -1.87 -1.93 0 0 0 0 0 0 0 0 0 0 0 0 0 
608 -1.85 -1.93 0 0 0 0 0 0 0 0 0 0 0 0 0 
609 -1.83 -1.93 0 0 0 0 0 0 0 0 0 0 0 0 0 
610 -1.81 -1.93 0 0 0 0 0 0 0 0 0 0 0 0 0 
611 -1.79 -1.93 0 0 0 0 0 0 0 0 0 0 0 0 0 
612 -1.77 -1.93 0 0 0 0 0 0 0 0 0 0 0 0 0 
613 -1.75 -1.93 0 0 0 0 0 0 0 0 0 0 0 0 0 
614 -1.73 -1.93 0 0 0 0 0 0 0 0 0 0 0 0 0 
615 -1.71 -1.93 0 0 0 0 0 0 0 0 0 0 0 0 0 
616 -1.69 -1.93 0 0 0 0 0 0 0 0 0 0 0 0 0 
617 -1.67 -1.93 0 0 0 0 0 0 0 0 0 0 0 0 0 
618 -1.65 -1.93 0 0 0 0 0 0 0 0 0 0 0 0 0 
619 -1.63 -1.93 0 0 0 0 0 0 0 0 0 0 0 0 0 
620 -1.61 -1.93 0 0 0 0 0 0 0 0 0 0 0 0 0 
621 -1.59 -1.93 0 0 0 0 0 0 0 0 0 0 0 0 0 
622 -1.57 -1.93 0 0 0 0 0 0 0 0 0 0 0 0 0 
623 -1.55 -1.93 0 0 0 0 0 0 0 0 0 0 0 0 0 
624 -1.53 -1.93 0 0 0 0 0 0 0 0 0 0 0 0 0 
625 -1.51 -1.93 0 0 0 0 0 0 0 0 0 0 0 0 0 
626 -1.49 -1.93 0 0 0 0 0 0 0 0 0 0 0 0 0 
627 -1.47 -1.93 0 0 0 0 0 0 0 0 0 0 0 0 0 
628 -1.45 -1.93 0 0 0 0 0 0 0 0 0 0 0 0 0 
629 -1.43 -1.93 0 0 0 0 0 0 0 0 0 0 0 0 0 
630 -1.41 -1.93 0 0 0 0 0 0 0 0 0 0 0 0 0 
631 -1.39 -1.93 0 0 0 0 0 0 0 0 0 0 0 0 0 
632 -1.37 -1.93 0 0 0 0 0 0 0 0 0 0 0 0 0 
633 -1.35 -1.93 0 0 0 0 0 0 0 0 0 0 0 0 0 
634 -1.33 -1.93 0 0 0 0 0 0 0 0 0 0 0 0 0 
635 -1.31 -1.93 0 0 0 0 0 0 0 0 0 0 0 0 0 
636 -1.29 -1.93 0 0 0 0 0 0 0 0 0 0 0 0 0 
637 -1.27 -1.93 0 0 0 0 0 0 0 0 0 0 0 0 0 
638 -1.25 -1.93 0 0 0 0 0 0 0 0 0 0 0 0 0 
639 -1.23 -1.93 0 0 0 0 0 0 0 0 0 0 0 0 0 
640 -1.21 -1.93 0 0 0 0 0 0 0 0 0 0 0 0 0 
641 -1.19 -1.93 0 0 0 0 0 0 0 0 0 0 0 0 0 
642 -1.17 -1.93 0 0 0 0 0 0 0 0 0 0 0 0 0 
643 -1.15 -1.93 0 0 0 0 0 0 0 0 0 0 0 0 0 
644 -1.13 -1.93 0 0 0 0 0 0 0 0 0 0 0 0 0 
645 -1.11 -1.93 0 0 0 0 0 0 0 0 0 0 0 0 0 
646 -1.09 -1.93 0 0 0 0 0 0 0 0 0 0 0 0 0 
647 -1.07 -1.93 0 0 0 0 0 0 0 0 0 0 0 0 0 
648 -1.05 -1.93 0 0 0 0 0 0 0 0 0 0 0 0 0 
649 -1.03 -1.93 0 0 0 0 0 0 0 0 0 0 0 0 0 
650 -1.01 -1.93 0 0 0 0 0 0 0 0 0 0 0 0 0 
651 -0.99 -1.93 0 0 0 0 0 0 0 0 0 0 0 0 0 
652 -0.97 -1.93 0 0 0 0 0 0 0 0 0 0 0 0 0 
653 -0.95 -1.93 0 0 0 0 0 0 0 0 0 0 0 0 0 
654 -0.93 -1.93 0 0 0 0 0 0 0 0 0 0 0 0 0 
655 -0.91 -1.93 0 0 0 0 0 0 0 0 0 0 0 0 0 
656 -0.89 -1.93 0 0 0 0 0 0 0 0 0 0 0 0 0 
657 -0.87 -1.93 0 0 0 0 0 0 0 0 0 0 0 0 0 
658 -0.85 -1.93 0 0 0 0 0 0 0 0 0 0 0 0 0 
659 -0.83 -1.93 0 0 0 0 0 0 0 0 0 0 0 0 0 
660 -0.81 -1.93 0 0 0 0 0 0 0 0 0 0 0 0 0 
661 -0.79 -1.93 0 0 0 0 0 0 0 0 0 0 0 0 0 
662 -0.77 -1.93 0 0 0 0 0 0 0 0 0 0 0 0 0 
663 -0.75 -1.93 0 0 0 0 0 0 0 0 0 0 0 0 0 
664 -0.73 -1.93 0 0 0 0 0 0 0 0 0 0 0 0 0 
665 -0.71 -1.93 0 0 0 0 0 0 0 0 0 0 0 0 0 
666 -0.69 -1.93 0 0 0 0 0 0 0 0 0 0 0 0 0 
667 -0.67 -1.93 0 0 0 0 0 0 0 0 0 0 0 0 0 
668 -0.65 -1.93 0 0 0 0 0 0 0 0 0 0 0 0 0 
669 -0.63 -1.93 0 0 0 0 0 0 0 0 0 0 0 0 0 
670 -0.61 -1.93 0 0 0 0 0 0 0 0 0 0 0 0 0 
671 -0.59 -1.93 0 0 0 0 0 0 0 0 0 0 0 0 0 
672 -0.57 -1.93 0 0 0 0 0 0 0 0 0 0 0 0 0 
673 -0.55 -1.93 0 0 0 0 0 0 0 0 0 0 0 0 0 
674 -0.53 -1.93 0 0 0 0 0 0 0 0 0 0 0 0 0 
675 -0.51 -1.93 0 0 0 0 0 0 0 0 0 0 0 0 0 
676 -0.49 -1.93 0 0 0 0 0 0 0 0 0 0 0 0 0 
677 -0.47 -1.93 0 0 0 0 0 0 0 0 0 0 0 0 0 
678 -0.45 -1.93 0 0 0 0 0 0 0 0 0 0 0 0 0 
679 -0.43 -1.93 0 0 0 0 0 0 0 0 0 0 0 0 0 
680 -0.41 -1.93 0 0 0 0 0 0 0 0 0 0 0 0 0 
681 -0.39 -1.93 0 0 0 0 0 0 0 0 0 0 0 0 0 
682 -0.37 -1.93 0 0 0 0 0 0 0 0 0 0 0 0 0 
683 -0.35 -1.93 0 0 0 0 0 0 0 0 0 0 0 0 0 
684 -0.33 -1.93 0 0 0 0 0 0 0 0 0 0 0 0 0 
685 -0.31 -1.93 0 0 0 0 0 0 0 0 0 0 0 0 0 
686 -0.29 -1.93 0 0 0 0 0 0 0 0 0 0 0 0 0 
687 -0.27 -1.93 0 0 0 0 0 0 0 0 0 0 0 0 0 
688 -0.25 -1.93 0 0 0 0 0 0 0 0 0 0 0 0 0 
689 -0.23 -1.93 0 0 0 0 0 0 0 0 0 0 0 0 0 
690 -0.21 -1.93 0 0 0 0 0 0 0 0 0 0 0 0 0 
691 -0.19 -1.93 0 0 0 0 0 0 0 0 0 0 0 0 0 
692 -0.17 -1.93 0 0 0 0 0 0 0 0 0 0 0 0 0 
693 -0.15 -1.93 0 0 0 0 0 0 0 0 0 0 0 0 0 
694 -0.13 -1.93 0 0 0 0 0 0 0 0 0 0 0 0 0 
695 -0.11 -1.93 0 0 0 0 0 0 0 0 0 0 0 0 0 
696 -0.09 -1.93 0 0 0 0 0 0 0 0 0 0 0 0 0 
697 -0.07 -1.93 0 0 0 0 0 0 0 0 0 0 0 0 0 
698 -0.05 -1.93 0 0 0 0 0 0 0 0 0 0 0 0 0 
699 -0.03 -1.93 0 0 0 0 0 0 0 0 0 0 0 0 0 
700 -0.01 -1.93 0 0 0 0 0 0 0 0 0 0 0 0 0 
701 0.01 -1.93 0 0 0 0 0 0 0 0 0 0 0 0 0 
702 0.03 -1.93 0 0 0 0 0 0 0 0 0 0 0 0 0 