ITEM: TIMESTEP
0
ITEM: NUMBER OF TALLIES
0
ITEM: BOX BOUNDS oo rr pp
0 10
0 10
-0.5 0.5
ITEM: TALLIES c_1[1] c_1[2] c_1[3] c_1[4] c_1[5] c_1[6] c_1[7] c_1[8] c_1[9] c_1[10] c_1[11] 
ITEM: TIMESTEP
100
ITEM: NUMBER OF TALLIES
0
ITEM: BOX BOUNDS oo rr pp
0 10
0 10
-0.5 0.5
ITEM: TALLIES c_1[1] c_1[2] c_1[3] c_1[4] c_1[5] c_1[6] c_1[7] c_1[8] c_1[9] c_1[10] c_1[11] 
ITEM: TIMESTEP
200
ITEM: NUMBER OF TALLIES
32
ITEM: BOX BOUNDS oo rr pp
0 10
0 10
-0.5 0.5
ITEM: TALLIES c_1[1] c_1[2] c_1[3] c_1[4] c_1[5] c_1[6] c_1[7] c_1[8] c_1[9] c_1[10] c_1[11] 
686062628 0 0 1 0 0 36 1.63924e-05 4.29647 2.08944 0 
2132104419 0 0 1 0 0 35 5.32162e-06 3.97762 2.18457 0 
1327236578 0 0 1 0 0 37 9.04529e-05 4.69314 2.02089 0 
2068026732 0 0 1 0 0 30 2.29943e-05 2.45988 3.41482 0 
643491954 0 0 1 0 0 29 8.69561e-05 2.25454 3.80239 0 
192131593 0 0 1 0 0 38 4.0761e-06 4.88963 2.00592 0 
430695310 0 0 1 0 0 32 1.36305e-05 2.89447 2.86994 0 
862096510 0 0 1 0 0 34 2.47778e-05 3.63793 2.3321 0 
713132637 0 0 1 0 0 36 9.76947e-05 4.38199 2.06748 0 
1629433200 0 0 1 0 0 35 9.17605e-05 3.87565 2.22495 0 
76609587 0 0 1 0 0 27 6.46991e-05 2.0902 4.27515 0 
2110461477 0 0 1 0 0 37 3.86428e-06 4.62888 2.02901 0 
2139591425 0 0 1 0 0 31 7.80973e-05 2.69907 3.08418 0 
1447442508 0 0 1 0 0 31 5.44796e-05 2.61563 3.18505 0 
1266290780 0 0 1 0 0 28 9.1188e-05 2.09693 4.24567 0 
600230275 0 0 1 0 0 23 3.40395e-05 2.20269 6.07981 0 
1637003494 0 0 1 0 0 24 1.70054e-05 2.08664 5.70615 0 
147368335 0 0 1 0 0 18 8.18473e-05 3.37146 7.51768 0 
506329833 0 0 1 0 0 14 3.25938e-05 4.70359 7.98043 0 
264273986 0 0 1 0 0 17 5.70017e-05 3.5397 7.6139 0 
863262061 0 0 1 0 0 15 8.11404e-05 4.25808 7.9007 0 
699903281 0 0 1 0 0 15 3.32428e-05 4.4244 7.94341 0 
857541143 0 0 1 0 0 17 8.32629e-05 3.44543 7.56207 0 
1584589021 0 0 1 0 0 16 5.18546e-05 3.99118 7.82079 0 
890529616 0 0 1 0 0 18 6.0942e-05 3.16013 7.36414 0 
1020138342 0 0 1 0 0 19 7.06874e-05 3.06837 7.29336 0 
1033906272 0 0 1 0 0 22 7.36099e-05 2.29079 6.27464 0 
931371639 0 0 1 0 0 25 5.06984e-05 2.00258 5.04097 0 
270216228 0 0 1 0 0 39 7.22326e-05 5.5104 2.0466 0 
311083647 0 0 1 0 0 41 4.75606e-05 6.23436 2.2685 0 
1260493854 0 0 1 0 0 39 6.7326e-05 5.49322 2.04443 0 
1239112613 0 0 1 0 0 12 3.36308e-05 5.36258 7.97207 0 
ITEM: TIMESTEP
300
ITEM: NUMBER OF TALLIES
26
ITEM: BOX BOUNDS oo rr pp
0 10
0 10
-0.5 0.5
ITEM: TALLIES c_1[1] c_1[2] c_1[3] c_1[4] c_1[5] c_1[6] c_1[7] c_1[8] c_1[9] c_1[10] c_1[11] 
780115585 0 0 1 0 0 32 2.97899e-05 2.83312 2.92756 0 
957768253 0 0 1 0 0 35 6.86513e-05 3.84321 2.23779 0 
1881381945 0 0 1 0 0 28 7.44979e-05 2.16663 4.03118 0 
1444829 0 0 1 0 0 31 7.29854e-05 2.68508 3.1011 0 
949381112 0 0 1 0 0 32 5.44299e-05 3.0392 2.73403 0 
1145674749 0 0 1 0 0 36 1.2895e-05 4.22272 2.10837 0 
181573886 0 0 1 0 0 17 3.46534e-05 3.51967 7.60288 0 
2143738235 0 0 1 0 0 13 4.09202e-05 4.8612 7.99408 0 
961258146 0 0 1 0 0 19 8.79532e-05 3.04235 7.26892 0 
1349167076 0 0 1 0 0 18 7.92591e-05 3.26777 7.44235 0 
1419896159 0 0 1 0 0 16 7.53016e-05 4.01611 7.83067 0 
95934081 0 0 1 0 0 17 3.37702e-05 3.43179 7.55457 0 
552033119 0 0 1 0 0 20 8.79429e-05 2.72492 6.94705 0 
379331079 0 0 1 0 0 15 8.37959e-05 4.1218 7.86571 0 
589968860 0 0 1 0 0 21 2.59841e-05 2.41315 6.51156 0 
993900176 0 0 1 0 0 17 2.93917e-05 3.41257 7.54401 0 
1287061939 0 0 1 0 0 23 1.79975e-05 2.20985 6.10185 0 
331708022 0 0 1 0 0 17 7.8921e-05 3.58563 7.63915 0 
155711455 0 0 1 0 0 40 3.20496e-05 5.78712 2.1109 0 
2094242156 0 0 1 0 0 42 7.96839e-05 6.53034 2.42461 0 
659992522 659992522 0 1 2 0 42 9.42065e-05 6.58982 2.45731 0 
1031481911 0 0 1 0 0 39 6.07273e-05 5.23731 2.0121 0 
1512730207 0 0 1 0 0 39 7.39758e-05 5.24721 2.01335 0 
2038701802 0 0 1 0 0 10 9.68105e-05 6.07878 7.7931 0 
369517803 369517803 0 1 2 0 12 4.92364e-05 5.45736 7.9601 0 
567534517 0 0 1 0 0 13 3.97607e-05 5.06528 7.99408 0 
ITEM: TIMESTEP
400
ITEM: NUMBER OF TALLIES
40
ITEM: BOX BOUNDS oo rr pp
0 10
0 10
-0.5 0.5
ITEM: TALLIES c_1[1] c_1[2] c_1[3] c_1[4] c_1[5] c_1[6] c_1[7] c_1[8] c_1[9] c_1[10] c_1[11] 
448068163 0 0 1 0 0 28 1.6808e-05 2.17267 4.01257 0 
145497044 0 0 1 0 0 35 9.28771e-06 3.73925 2.27895 0 
36035312 36035312 105823319 1 1 1 31 6.93034e-05 2.63829 3.15766 0 
736962032 0 0 1 0 0 30 2.28636e-05 2.47637 3.38883 0 
725089695 0 0 1 0 0 37 9.2929e-05 4.79354 2.00821 0 
1988112567 0 0 1 0 0 35 6.91111e-07 4.01171 2.17108 0 
372978932 0 0 1 0 0 35 4.50874e-05 4.06698 2.14919 0 
1810119180 0 0 1 0 0 30 2.684e-05 2.40388 3.50305 0 
2118780157 0 0 1 0 0 35 6.26034e-05 3.72531 2.28447 0 
1985533691 0 0 1 0 0 36 1.12652e-05 4.10882 2.13762 0 
545997867 0 0 1 0 0 28 7.93997e-05 2.1672 4.02941 0 
697223309 0 0 1 0 0 30 4.80974e-05 2.45154 3.42796 0 
2121227474 0 0 1 0 0 29 6.66782e-05 2.21934 3.87721 0 
1429361307 0 0 1 0 0 32 2.28648e-06 2.96283 2.80575 0 
532732152 0 0 1 0 0 35 1.56301e-05 3.96837 2.18824 0 
585850424 0 0 1 0 0 31 2.31086e-05 2.7974 2.96532 0 
1192239599 0 0 1 0 0 34 1.63197e-05 3.62186 2.34093 0 
2109244064 0 0 1 0 0 30 5.25938e-05 2.48318 3.3781 0 
434106333 0 0 1 0 0 27 1.09258e-05 2.03794 4.54911 0 
1890195130 0 0 1 0 0 34 4.92677e-05 3.67611 2.31111 0 
1116982111 0 0 1 0 0 36 8.05654e-06 4.21422 2.11056 0 
1224396543 0 0 1 0 0 38 5.22259e-05 4.91151 2.00592 0 
284310447 0 0 1 0 0 31 5.42738e-05 2.78528 2.97998 0 
1143516562 0 0 1 0 0 16 7.35184e-05 3.73681 7.72008 0 
188177394 0 0 1 0 0 22 2.33164e-05 2.32917 6.3562 0 
365276372 0 0 1 0 0 22 8.68603e-05 2.23776 6.16193 0 
48347482 0 0 1 0 0 18 3.69407e-06 3.12856 7.3412 0 
1634207808 0 0 1 0 0 23 3.09002e-05 2.19786 6.06496 0 
1057066039 0 0 1 0 0 15 3.45455e-05 4.13519 7.86915 0 
1497528572 0 0 1 0 0 19 1.5566e-05 2.88944 7.12534 0 
2096296819 0 0 1 0 0 14 4.13609e-05 4.61249 7.96892 0 
236467619 0 0 1 0 0 20 6.59096e-05 2.66858 6.87896 0 
513398563 0 0 1 0 0 17 1.18786e-05 3.60949 7.65226 0 
216880910 0 0 1 0 0 21 5.78631e-05 2.56093 6.74442 0 
1425697670 1425697670 1293441329 1 1 1 18 9.38805e-06 3.27616 7.44844 0 
759772902 0 0 1 0 0 18 2.52481e-05 3.22044 7.40796 0 
444539401 0 0 1 0 0 39 1.74102e-05 5.27272 2.01658 0 
455033561 0 0 1 0 0 43 7.36634e-05 6.67523 2.51624 0 
1044306207 0 0 1 0 0 40 1.11128e-05 5.61736 2.06731 0 
115085796 0 0 1 0 0 12 4.40202e-05 5.44618 7.96151 0 
ITEM: TIMESTEP
500
ITEM: NUMBER OF TALLIES
44
ITEM: BOX BOUNDS oo rr pp
0 10
0 10
-0.5 0.5
ITEM: TALLIES c_1[1] c_1[2] c_1[3] c_1[4] c_1[5] c_1[6] c_1[7] c_1[8] c_1[9] c_1[10] c_1[11] 
820389038 0 0 1 0 0 30 1.28977e-05 2.51432 3.32903 0 
2006540996 0 0 1 0 0 32 1.91964e-05 2.96699 2.80184 0 
1283545194 1283545194 0 1 2 0 29 9.40899e-05 2.33287 3.63594 0 
410075542 0 0 1 0 0 36 6.84647e-05 4.25501 2.10009 0 
1269798005 0 0 1 0 0 26 3.09354e-05 2.00781 4.87588 0 
330124897 0 0 1 0 0 30 3.52762e-05 2.47537 3.39041 0 
62818747 0 0 1 0 0 33 2.82753e-06 3.32677 2.51479 0 
1552588463 0 0 1 0 0 36 3.37948e-05 4.41002 2.06029 0 
449616276 0 0 1 0 0 34 5.60988e-05 3.42739 2.44784 0 
79493256 79493256 0 1 2 0 30 1.06514e-05 2.55483 3.26519 0 
387834148 0 0 1 0 0 37 5.57941e-05 4.65749 2.02539 0 
1992685906 0 0 1 0 0 30 7.10019e-05 2.44743 3.43443 0 
1118399823 1118399823 312280129 1 1 1 28 3.34274e-05 2.1316 4.13897 0 
1835397113 0 0 1 0 0 31 5.00029e-05 2.8006 2.96147 0 
1223785728 0 0 1 0 0 37 8.15872e-05 4.64754 2.02665 0 
988634976 0 0 1 0 0 38 7.36416e-05 4.84488 2.00592 0 
1083988599 0 0 1 0 0 18 1.73853e-05 3.21335 7.40281 0 
353862383 0 0 1 0 0 21 7.98088e-06 2.48136 6.61903 0 
2022980941 0 0 1 0 0 25 2.82139e-05 2.00171 5.02725 0 
962604352 0 0 1 0 0 17 1.17602e-05 3.64671 7.67272 0 
2127734790 0 0 1 0 0 18 3.94483e-05 3.33275 7.48956 0 
1784990249 0 0 1 0 0 18 3.64845e-05 3.22774 7.41327 0 
2056827581 0 0 1 0 0 15 4.56096e-06 4.40176 7.93759 0 
1198176032 0 0 1 0 0 25 5.76901e-05 2.01988 5.31592 0 
1239083244 0 0 1 0 0 18 2.97339e-05 3.24106 7.42294 0 
508788122 0 0 1 0 0 13 5.26759e-05 4.86319 7.99408 0 
660167927 0 0 1 0 0 21 4.2897e-05 2.49962 6.64781 0 
1779839536 0 0 1 0 0 23 9.18908e-05 2.14723 5.90911 0 
1553442848 0 0 1 0 0 21 3.93175e-05 2.39591 6.48439 0 
622393554 0 0 1 0 0 16 7.14697e-05 3.81862 7.75247 0 
1601225330 0 0 1 0 0 17 5.62368e-05 3.46683 7.57384 0 
1646993762 0 0 1 0 0 22 4.11052e-05 2.26488 6.21958 0 
639939659 639939659 176446552 1 1 1 16 6.92645e-05 3.74863 7.72476 0 
132870373 0 0 1 0 0 24 9.76029e-05 2.06021 5.56761 0 
415917608 0 0 1 0 0 15 8.60951e-05 4.22291 7.89167 0 
377008726 0 0 1 0 0 17 3.87669e-05 3.67461 7.68807 0 
1799616267 0 0 1 0 0 18 1.54391e-05 3.20271 7.39508 0 
1140931155 0 0 1 0 0 14 3.52245e-05 4.7796 7.99003 0 
2130751298 2130751298 0 1 2 0 19 9.51258e-05 2.95756 7.1893 0 
1590433802 0 0 1 0 0 14 9.59988e-05 4.74437 7.98558 0 
1413954412 0 0 1 0 0 17 3.808e-05 3.5963 7.64502 0 
507513541 0 0 1 0 0 19 4.59963e-05 2.95102 7.18316 0 
762966367 0 0 1 0 0 13 9.09276e-05 5.12306 7.99408 0 
368897616 0 0 1 0 0 11 3.67211e-05 5.57611 7.94328 0 
