ITEM: TIMESTEP
0
ITEM: NUMBER OF TALLIES
0
ITEM: BOX BOUNDS oo rr pp
0 10
0 10
-0.5 0.5
ITEM: TALLIES c_1[1] c_1[2] c_1[3] c_1[4] c_1[5] c_1[6] c_1[7] c_1[8] c_1[9] c_1[10] c_1[11] 
ITEM: TIMESTEP
100
ITEM: NUMBER OF TALLIES
0
ITEM: BOX BOUNDS oo rr pp
0 10
0 10
-0.5 0.5
ITEM: TALLIES c_1[1] c_1[2] c_1[3] c_1[4] c_1[5] c_1[6] c_1[7] c_1[8] c_1[9] c_1[10] c_1[11] 
ITEM: TIMESTEP
200
ITEM: NUMBER OF TALLIES
26
ITEM: BOX BOUNDS oo rr pp
0 10
0 10
-0.5 0.5
ITEM: TALLIES c_1[1] c_1[2] c_1[3] c_1[4] c_1[5] c_1[6] c_1[7] c_1[8] c_1[9] c_1[10] c_1[11] 
1020774609 0 0 1 0 0 43 5.15212e-05 6.65112 2.49872 0 
931371639 0 0 1 0 0 25 5.06984e-05 2.00258 5.04097 0 
2132104419 0 0 1 0 0 35 5.32162e-06 3.97762 2.18457 0 
643491954 0 0 1 0 0 29 8.69561e-05 2.25454 3.80239 0 
192131593 0 0 1 0 0 38 4.0761e-06 4.88963 2.00592 0 
430695310 0 0 1 0 0 32 1.36305e-05 2.89447 2.86994 0 
870952458 0 0 1 0 0 22 3.59837e-05 2.26611 6.22219 0 
862096510 0 0 1 0 0 34 2.47778e-05 3.63793 2.3321 0 
1637003494 0 0 1 0 0 24 1.70054e-05 2.08664 5.70615 0 
713132637 0 0 1 0 0 36 9.76947e-05 4.38199 2.06748 0 
980255939 0 0 1 0 0 21 2.27531e-05 2.56485 6.7506 0 
76609587 0 0 1 0 0 27 6.46991e-05 2.0902 4.27515 0 
2139591425 0 0 1 0 0 31 7.80973e-05 2.69907 3.08418 0 
270216228 0 0 1 0 0 39 7.22326e-05 5.5104 2.0466 0 
2068026732 0 0 1 0 0 30 2.29943e-05 2.45988 3.41482 0 
311083647 0 0 1 0 0 41 4.75606e-05 6.23436 2.2685 0 
1629433200 0 0 1 0 0 35 9.17605e-05 3.87565 2.22495 0 
768801363 0 0 1 0 0 19 5.73173e-05 2.99514 7.22459 0 
1327236578 0 0 1 0 0 37 9.04529e-05 4.69314 2.02089 0 
1260493854 0 0 1 0 0 39 6.7326e-05 5.49322 2.04443 0 
335567413 0 0 1 0 0 17 6.60084e-05 3.40235 7.53839 0 
1246144207 0 0 1 0 0 25 5.03616e-05 2.0211 5.33538 0 
1145067814 0 0 1 0 0 18 2.65343e-05 3.15717 7.36199 0 
198685485 0 0 1 0 0 12 3.28894e-05 5.31334 7.97829 0 
1317767137 0 0 1 0 0 13 7.12099e-05 4.92798 7.99408 0 
1266290780 0 0 1 0 0 28 9.1188e-05 2.09693 4.24567 0 
ITEM: TIMESTEP
300
ITEM: NUMBER OF TALLIES
35
ITEM: BOX BOUNDS oo rr pp
0 10
0 10
-0.5 0.5
ITEM: TALLIES c_1[1] c_1[2] c_1[3] c_1[4] c_1[5] c_1[6] c_1[7] c_1[8] c_1[9] c_1[10] c_1[11] 
1159248057 0 0 1 0 0 17 9.46992e-05 3.39395 7.53377 0 
1804105968 0 0 1 0 0 20 9.22922e-05 2.60847 6.8063 0 
1392144563 0 0 1 0 0 22 6.15664e-06 2.24158 6.17005 0 
443501698 0 0 1 0 0 33 5.87929e-05 3.15493 2.63964 0 
1458246472 0 0 1 0 0 41 1.72097e-05 6.15261 2.23614 0 
181573886 0 0 1 0 0 17 3.46534e-05 3.51967 7.60288 0 
917934718 917934718 0 1 2 0 21 8.7285e-05 2.56126 6.74493 0 
736962032 736962032 1766061431 1 1 1 30 2.28636e-05 2.47637 3.38883 0 
513398563 0 0 1 0 0 17 1.18786e-05 3.60949 7.65226 0 
444539401 444539401 0 1 2 0 39 1.74102e-05 5.27272 2.01658 0 
1226429158 0 0 1 0 0 20 7.39922e-05 2.75122 6.97885 0 
1708223260 0 0 1 0 0 12 4.67347e-05 5.34788 7.97393 0 
684304118 0 0 1 0 0 20 9.12628e-06 2.74804 6.975 0 
1270090851 0 0 1 0 0 19 2.57397e-06 3.03176 7.25898 0 
1192239599 0 0 1 0 0 34 1.63197e-05 3.62186 2.34093 0 
336329658 0 0 1 0 0 21 3.78389e-05 2.54354 6.71701 0 
1224396543 0 0 1 0 0 38 5.22259e-05 4.91151 2.00592 0 
284310447 0 0 1 0 0 31 5.42738e-05 2.78528 2.97998 0 
1988112567 0 0 1 0 0 35 6.91111e-07 4.01171 2.17108 0 
1429361307 0 0 1 0 0 32 2.28648e-06 2.96283 2.80575 0 
372978932 0 0 1 0 0 35 4.50874e-05 4.06698 2.14919 0 
1810119180 0 0 1 0 0 30 2.684e-05 2.40388 3.50305 0 
1985533691 0 0 1 0 0 36 1.12652e-05 4.10882 2.13762 0 
1971888936 0 0 1 0 0 17 8.62344e-05 3.65232 7.67581 0 
697223309 0 0 1 0 0 30 4.80974e-05 2.45154 3.42796 0 
1116982111 0 0 1 0 0 36 8.05654e-06 4.21422 2.11056 0 
1890195130 0 0 1 0 0 34 4.92677e-05 3.67611 2.31111 0 
532732152 0 0 1 0 0 35 1.56301e-05 3.96837 2.18824 0 
36035312 0 0 1 0 0 31 6.93034e-05 2.63829 3.15766 0 
1193464880 0 0 1 0 0 16 2.34327e-05 4.04895 7.84367 0 
1216683830 0 0 1 0 0 20 1.62629e-05 2.79096 7.02689 0 
869545508 0 0 1 0 0 17 1.08959e-05 3.43508 7.55638 0 
365276372 0 0 1 0 0 22 8.68603e-05 2.23776 6.16193 0 
48347482 48347482 0 1 2 0 18 3.69407e-06 3.12856 7.3412 0 
754409480 0 0 1 0 0 20 6.73434e-05 2.77049 7.00214 0 
ITEM: TIMESTEP
400
ITEM: NUMBER OF TALLIES
37
ITEM: BOX BOUNDS oo rr pp
0 10
0 10
-0.5 0.5
ITEM: TALLIES c_1[1] c_1[2] c_1[3] c_1[4] c_1[5] c_1[6] c_1[7] c_1[8] c_1[9] c_1[10] c_1[11] 
62818747 0 0 1 0 0 33 2.82753e-06 3.32677 2.51479 0 
689537233 0 0 1 0 0 17 3.73281e-05 3.43053 7.55388 0 
1017934564 0 0 1 0 0 27 6.60557e-05 2.05691 4.44968 0 
2048774093 0 0 1 0 0 28 6.7222e-05 2.1168 4.18453 0 
1705902891 0 0 1 0 0 12 4.68951e-06 5.26914 7.98388 0 
746871432 0 0 1 0 0 36 4.72608e-05 4.2242 2.108 0 
1026372012 0 0 1 0 0 22 3.81301e-05 2.27723 6.24581 0 
9947696 0 0 1 0 0 19 6.54412e-06 2.96166 7.19315 0 
1928768727 0 0 1 0 0 43 6.27959e-05 6.87883 2.66417 0 
437002182 0 0 1 0 0 40 6.40401e-05 5.7972 2.11349 0 
1979959248 0 0 1 0 0 26 3.52606e-05 2.00806 4.87194 0 
1063100535 0 0 1 0 0 19 8.47763e-05 3.00022 7.22937 0 
989914384 0 0 1 0 0 18 5.08869e-05 3.18104 7.37933 0 
730651147 0 0 1 0 0 25 1.3312e-05 2.01431 5.22744 0 
1810483687 0 0 1 0 0 12 4.73839e-05 5.27163 7.98356 0 
1600717461 0 0 1 0 0 18 1.00495e-05 3.38064 7.52436 0 
157912248 0 0 1 0 0 34 2.88797e-05 3.61542 2.34448 0 
841960514 0 0 1 0 0 33 5.02265e-06 3.34112 2.50436 0 
426982120 0 0 1 0 0 19 5.14692e-05 2.82702 7.06672 0 
404025103 0 0 1 0 0 17 7.86458e-05 3.71096 7.70805 0 
82782526 0 0 1 0 0 10 5.92973e-05 6.12397 7.7752 0 
391869446 0 0 1 0 0 34 9.69699e-06 3.67816 2.30999 0 
822504965 0 0 1 0 0 31 1.84502e-05 2.59155 3.21416 0 
1384549285 0 0 1 0 0 19 4.63495e-05 3.02957 7.25693 0 
1212696906 0 0 1 0 0 34 2.80713e-05 3.70189 2.29694 0 
707411223 0 0 1 0 0 15 9.59996e-05 4.20888 7.88807 0 
1083988599 0 0 1 0 0 18 1.73853e-05 3.21335 7.40281 0 
1491783166 0 0 1 0 0 26 4.32975e-05 2.0216 4.65661 0 
1164199392 0 0 1 0 0 20 5.86969e-05 2.67323 6.88457 0 
28050792 0 0 1 0 0 24 8.30246e-05 2.08922 5.71968 0 
1911981676 0 0 1 0 0 16 4.10484e-05 3.89024 7.78083 0 
338401551 0 0 1 0 0 29 4.38441e-05 2.25225 3.80726 0 
299398083 0 0 1 0 0 33 6.52651e-05 3.09918 2.68014 0 
668213695 0 0 1 0 0 34 8.73499e-05 3.68227 2.30772 0 
1654817172 0 0 1 0 0 34 8.90252e-05 3.4454 2.43794 0 
1336134700 0 0 1 0 0 10 4.63105e-05 5.9293 7.85228 0 
602111707 0 0 1 0 0 30 3.4212e-05 2.48846 3.36978 0 
ITEM: TIMESTEP
500
ITEM: NUMBER OF TALLIES
32
ITEM: BOX BOUNDS oo rr pp
0 10
0 10
-0.5 0.5
ITEM: TALLIES c_1[1] c_1[2] c_1[3] c_1[4] c_1[5] c_1[6] c_1[7] c_1[8] c_1[9] c_1[10] c_1[11] 
501149460 0 0 1 0 0 28 3.1795e-05 2.16563 4.03426 0 
1478856618 0 0 1 0 0 38 3.11694e-05 5.17409 2.00592 0 
285159107 0 0 1 0 0 26 3.53414e-05 2.00663 4.89465 0 
1024785769 0 0 1 0 0 35 3.67039e-05 4.01175 2.17106 0 
681890269 0 0 1 0 0 17 8.87844e-05 3.65414 7.67681 0 
931935341 0 0 1 0 0 27 2.51918e-05 2.03926 4.54221 0 
406418162 0 0 1 0 0 17 4.7645e-05 3.65962 7.67983 0 
1602666055 0 0 1 0 0 35 4.25088e-05 3.72594 2.28422 0 
1601225330 0 0 1 0 0 17 5.62368e-05 3.46683 7.57384 0 
1079245978 0 0 1 0 0 10 3.24553e-05 6.16769 7.75789 0 
1804998967 0 0 1 0 0 32 5.60853e-06 2.96814 2.80076 0 
820389038 0 0 1 0 0 30 1.28977e-05 2.51432 3.32903 0 
392417954 0 0 1 0 0 17 8.19052e-05 3.54371 7.6161 0 
1347315507 0 0 1 0 0 12 7.34244e-06 5.52605 7.95142 0 
1966488292 0 0 1 0 0 18 1.80333e-05 3.30422 7.46883 0 
721036482 0 0 1 0 0 18 6.81534e-05 3.29981 7.46562 0 
2137937506 0 0 1 0 0 15 6.09704e-06 4.28207 7.90686 0 
875935197 0 0 1 0 0 39 3.38014e-05 5.21736 2.00958 0 
1832383742 0 0 1 0 0 22 4.20912e-06 2.33601 6.37073 0 
1991243162 0 0 1 0 0 13 1.85757e-05 5.07989 7.99408 0 
1453743285 0 0 1 0 0 21 2.66767e-05 2.50185 6.65132 0 
1964109146 0 0 1 0 0 12 4.57415e-05 5.45217 7.96075 0 
1478788858 0 0 1 0 0 12 9.27791e-05 5.33369 7.97572 0 
803447853 0 0 1 0 0 29 5.60126e-06 2.21758 3.88094 0 
983953981 983953981 0 1 2 0 32 1.45219e-05 2.82528 2.93491 0 
1476410574 0 0 1 0 0 12 1.04361e-05 5.46781 7.95878 0 
1938940668 0 0 1 0 0 43 9.00048e-05 6.7438 2.56606 0 
2122200540 0 0 1 0 0 24 9.41542e-05 2.04201 5.4722 0 
1341238704 0 0 1 0 0 28 9.51869e-05 2.14081 4.11063 0 
2078358742 0 0 1 0 0 32 9.433e-05 3.08128 2.69452 0 
86562231 0 0 1 0 0 33 1.43288e-05 3.19408 2.61119 0 
1698004129 0 0 1 0 0 38 7.58119e-05 5.14049 2.00592 0 
