ITEM: TIMESTEP
0
ITEM: NUMBER OF TALLIES
0
ITEM: BOX BOUNDS oo rr pp
0 10
0 10
-0.5 0.5
ITEM: TALLIES c_1[1] c_1[2] c_1[3] c_1[4] c_1[5] c_1[6] c_1[7] 
ITEM: TIMESTEP
100
ITEM: NUMBER OF TALLIES
115
ITEM: BOX BOUNDS oo rr pp
0 10
0 10
-0.5 0.5
ITEM: TALLIES c_1[1] c_1[2] c_1[3] c_1[4] c_1[5] c_1[6] c_1[7] 
509983166 1 42 2.9499e-05 6.5593 2.44053 0 
984727911 1 40 3.04302e-05 5.89259 2.13798 0 
580913905 2 18 6.72913e-05 3.18717 7.38379 0 
92390448 2 20 3.85922e-05 2.77403 7.00642 0 
502913684 2 17 8.49925e-05 3.4328 7.55513 0 
237544410 1 19 7.18966e-05 3.04665 7.27297 0 
626176216 1 41 2.65372e-05 6.0859 2.20972 0 
174808265 1 14 9.99514e-05 4.80925 7.99378 0 
964402219 1 18 1.97396e-05 3.32963 7.48729 0 
258161367 1 36 5.03644e-05 4.32163 2.08298 0 
667654680 1 22 6.6518e-05 2.21432 6.11212 0 
2073956916 1 30 1.49267e-05 2.54575 3.2795 0 
1132769856 2 21 9.98582e-05 2.40414 6.49735 0 
490714513 2 16 3.2667e-05 3.88725 7.77964 0 
1250766676 1 15 4.56518e-05 4.23111 7.89378 0 
1966784273 2 35 3.9098e-05 3.94964 2.19565 0 
368287660 2 34 7.97125e-05 3.41217 2.45621 0 
553189569 1 29 1.92153e-05 2.32096 3.66125 0 
1867219400 1 16 9.56108e-06 3.87145 7.77339 0 
1916210734 2 16 4.91496e-05 3.99825 7.82359 0 
2096112876 2 29 7.96906e-05 2.2146 3.88727 0 
523811260 1 27 6.15965e-05 2.05251 4.47274 0 
1305399298 2 17 5.28505e-05 3.40469 7.53967 0 
1427895347 1 21 5.1132e-05 2.40457 6.49803 0 
811855812 1 19 6.10073e-05 2.90587 7.14077 0 
1191176268 1 38 2.43712e-05 4.92514 2.00592 0 
905116444 2 20 1.51911e-05 2.79798 7.03537 0 
160830492 1 31 1.25398e-05 2.68022 3.10698 0 
1738890407 1 28 8.74664e-05 2.10676 4.21542 0 
534146367 2 24 3.84069e-06 2.07664 5.65373 0 
255823305 2 34 6.74337e-05 3.39625 2.46497 0 
1571509439 1 23 8.71273e-05 2.16998 5.97914 0 
601484522 1 31 3.71701e-05 2.76695 3.00213 0 
2091477183 1 20 6.96825e-05 2.76967 7.00115 0 
81405178 1 23 3.56342e-05 2.15958 5.94712 0 
706317344 1 25 6.48508e-05 2.0058 5.09212 0 
2033690182 2 27 9.71568e-05 2.05298 4.47027 0 
789170912 2 24 3.09151e-05 2.08932 5.72021 0 
154784765 1 21 4.39846e-05 2.40541 6.49935 0 
1432999989 1 21 5.03331e-05 2.40574 6.49987 0 
1346247005 1 14 4.2227e-05 4.45122 7.94855 0 
618006219 1 17 7.16131e-05 3.65414 7.67681 0 
444588692 1 21 8.98096e-05 2.40746 6.50258 0 
612431062 1 32 8.93128e-05 2.93201 2.83469 0 
55964108 2 22 4.04512e-05 2.36383 6.42986 0 
1268747746 2 23 6.43534e-05 2.13033 5.85712 0 
892781086 1 30 9.63076e-05 2.4758 3.38972 0 
1508432265 1 24 7.8249e-05 2.02501 5.3831 0 
425306555 1 26 4.35149e-05 2.01461 4.76786 0 
1048200071 2 19 7.57466e-05 3.03414 7.26122 0 
1238928705 2 16 9.33819e-05 3.80489 7.74704 0 
1824258399 2 30 6.14143e-05 2.4041 3.5027 0 
979985917 2 25 8.67161e-05 2.02318 5.36837 0 
6953051 2 20 7.44201e-05 2.60625 6.80361 0 
931525661 1 22 8.91556e-05 2.33852 6.37606 0 
663928164 2 17 9.7757e-05 3.49285 7.58814 0 
1739721653 1 34 2.41443e-06 3.41731 2.45339 0 
1324572884 2 36 2.86132e-05 4.30926 2.08616 0 
1332267209 2 24 6.87905e-05 2.06137 5.57368 0 
281413977 1 19 9.68393e-05 3.03537 7.26238 0 
915795762 1 21 4.21335e-05 2.45835 6.58278 0 
2016649157 1 22 4.01599e-05 2.27038 6.23126 0 
1686967944 1 34 3.77954e-05 3.44778 2.43664 0 
1433050792 2 32 7.19004e-05 3.01842 2.75354 0 
1048786809 2 22 3.57419e-05 2.21439 6.11227 0 
1873147887 2 23 2.77796e-05 2.19638 6.0604 0 
210514712 2 33 7.48474e-05 3.277 2.55095 0 
1984899483 1 34 4.28208e-05 3.43312 2.4447 0 
1989679528 2 23 7.76099e-05 2.10002 5.76384 0 
1307347143 1 18 1.34694e-05 3.20861 7.39936 0 
1664932741 1 19 5.51981e-06 2.99203 7.22168 0 
659479918 2 21 9.88538e-05 2.543 6.71616 0 
1010822150 2 24 3.30099e-05 2.09207 5.73463 0 
1410360518 1 20 6.86857e-05 2.65373 6.861 0 
722048040 2 31 2.26933e-05 2.77604 2.99115 0 
94711789 1 29 7.45481e-05 2.24686 3.81872 0 
1224141905 2 31 9.72857e-05 2.72138 3.05723 0 
920373184 1 25 3.83808e-05 2.0228 5.36236 0 
465925877 2 26 8.31009e-05 2.00628 4.90019 0 
1225734877 1 24 4.28582e-06 2.04371 5.48115 0 
1880530055 1 25 3.82213e-05 2.01253 5.19921 0 
1574900891 2 29 1.95901e-05 2.27993 3.74845 0 
1762478511 1 30 6.07651e-05 2.39156 3.52247 0 
1384094719 1 22 5.90311e-05 2.23526 6.15664 0 
477435810 1 19 8.2102e-05 2.87857 7.11513 0 
538770290 1 29 1.32024e-05 2.22343 3.86851 0 
346279723 1 23 7.27371e-05 2.12712 5.84723 0 
1811330431 2 28 6.51981e-05 2.16667 4.03106 0 
403954947 2 22 7.69614e-05 2.30439 6.30354 0 
1982151049 1 22 1.49109e-05 2.29584 6.28536 0 
1019648887 1 28 1.71388e-05 2.1415 4.10851 0 
1622449362 2 30 5.10047e-05 2.39429 3.51817 0 
1242889341 2 26 8.72426e-05 2.00418 4.93362 0 
1664131697 1 20 3.4401e-05 2.70862 6.92735 0 
827725235 2 34 2.93615e-05 3.50395 2.40576 0 
2145994996 2 24 6.2933e-05 2.04317 5.47831 0 
1939375905 2 26 6.69832e-05 2.00765 4.87841 0 
1133295711 1 29 4.21869e-05 2.35705 3.58456 0 
18258719 1 24 7.25208e-05 2.07751 5.65831 0 
1889491301 1 25 8.64633e-05 2.01745 5.27742 0 
662510445 1 21 3.71108e-05 2.41234 6.51028 0 
1501484030 2 27 8.7231e-05 2.03032 4.58907 0 
2011439325 1 24 3.86307e-05 2.05626 5.54691 0 
528260945 2 21 5.20071e-05 2.39379 6.48105 0 
164134238 2 28 7.38569e-05 2.13277 4.13539 0 
595329297 2 20 9.48807e-05 2.7991 7.03672 0 
394733255 2 25 7.46624e-05 2.00043 5.00677 0 
31914450 2 24 4.57512e-05 2.07494 5.64484 0 
1826333413 2 28 2.12711e-05 2.18004 3.98991 0 
605442626 2 25 2.84557e-05 2.00221 5.03515 0 
1977903 1 31 3.46022e-05 2.62698 3.17133 0 
1253216145 1 22 7.40244e-05 2.22233 6.12915 0 
624809561 1 24 3.14591e-05 2.0286 5.40191 0 
367937631 1 26 7.32376e-05 2.00453 4.92806 0 
1842553037 1 25 7.93935e-05 2.01919 5.30496 0 
ITEM: TIMESTEP
200
ITEM: NUMBER OF TALLIES
167
ITEM: BOX BOUNDS oo rr pp
0 10
0 10
-0.5 0.5
ITEM: TALLIES c_1[1] c_1[2] c_1[3] c_1[4] c_1[5] c_1[6] c_1[7] 
1648543794 2 33 9.23901e-05 3.2667 2.55843 0 
178957004 2 16 7.93725e-05 3.72403 7.71502 0 
1222780766 2 45 1.87388e-05 7.37446 3.17308 0 
1011443638 1 21 4.34596e-05 2.48797 6.62945 0 
557631417 1 20 1.08332e-05 2.64134 6.84603 0 
216192025 1 20 8.41169e-05 2.75207 6.97987 0 
605397338 2 35 9.02566e-05 3.91464 2.20951 0 
1652268340 1 13 2.247e-05 5.18755 7.99408 0 
1374966837 2 14 2.24782e-05 4.69174 7.97893 0 
796932996 2 16 7.53187e-05 3.92665 7.79524 0 
1022440116 2 22 2.94074e-08 2.34827 6.39678 0 
283999556 2 14 8.80705e-05 4.48277 7.95254 0 
1473526849 1 19 6.88604e-06 3.03242 7.25961 0 
1433972281 1 21 8.7511e-05 2.44971 6.56916 0 
1191517665 2 14 2.9756e-05 4.45461 7.94898 0 
1749613652 1 19 9.00346e-05 2.87061 7.10765 0 
1153198497 1 22 5.11678e-05 2.29326 6.27988 0 
1635700315 1 20 7.51027e-05 2.72051 6.94173 0 
595631557 2 15 6.97886e-05 4.23423 7.89458 0 
218152581 2 15 7.24961e-05 4.35564 7.92575 0 
587723685 2 15 8.99137e-05 4.29807 7.91097 0 
1364217105 1 33 3.575e-05 3.09016 2.68669 0 
1009690999 1 21 9.03911e-05 2.3968 6.48578 0 
1760912377 2 14 9.23581e-05 4.72709 7.9834 0 
157939414 2 19 2.60245e-05 2.83977 7.07869 0 
1050779210 2 19 8.99746e-05 2.83839 7.0774 0 
1156116195 1 23 5.77361e-05 2.14061 5.88876 0 
1384337606 1 20 5.9711e-05 2.79268 7.02896 0 
719171436 2 13 1.16687e-05 5.01298 7.99408 0 
917387776 1 20 1.09879e-05 2.76714 6.99809 0 
1574400059 2 33 6.49612e-05 3.38799 2.4703 0 
2082430034 1 16 5.28104e-05 3.73531 7.71949 0 
1030223608 1 36 7.7253e-05 4.37017 2.07052 0 
1790792329 1 20 8.05116e-05 2.61114 6.80952 0 
893420903 1 13 5.97644e-05 5.10541 7.99408 0 
1425022276 2 29 4.6423e-05 2.21779 3.8805 0 
1322330076 1 16 6.53792e-05 4.06357 7.84946 0 
1913514586 2 35 2.28285e-05 3.90831 2.21201 0 
692393084 2 21 8.1508e-06 2.4332 6.54315 0 
440973736 1 16 9.19545e-05 3.93985 7.80047 0 
1971232231 2 15 2.10124e-05 4.13365 7.86875 0 
656391474 1 32 6.97597e-05 3.03858 2.73461 0 
492972656 1 12 3.40372e-05 5.28109 7.98237 0 
1721253012 2 25 5.90916e-05 2.00224 5.03561 0 
79789638 2 15 3.36223e-05 4.21606 7.88991 0 
588293825 2 20 9.14306e-07 2.8051 7.04397 0 
7286893 1 23 9.17894e-05 2.14897 5.91448 0 
180182835 1 34 2.24848e-05 3.53681 2.38769 0 
680219310 2 17 3.45553e-05 3.44249 7.56046 0 
780033188 2 15 2.85995e-05 4.21035 7.88845 0 
17858635 1 18 3.31604e-05 3.12579 7.3392 0 
639639628 2 22 6.40314e-05 2.30473 6.30427 0 
1667492838 1 22 2.23163e-05 2.24727 6.18215 0 
1743454505 2 14 8.89241e-05 4.70567 7.98069 0 
77163717 2 29 1.99829e-05 2.23458 3.84481 0 
1558446214 1 35 6.73452e-05 3.73032 2.28249 0 
612333987 1 11 6.34763e-05 5.60738 7.93525 0 
1676333800 2 19 5.49288e-05 2.99515 7.22461 0 
200373154 1 13 8.80326e-05 4.86928 7.99408 0 
1656428682 1 37 2.36378e-05 4.57044 2.03639 0 
240987058 2 21 1.83744e-05 2.55257 6.73125 0 
767415728 1 42 9.7124e-05 6.37367 2.33848 0 
554225027 2 17 8.05525e-05 3.50302 7.59373 0 
5028914 1 38 2.5445e-05 4.83206 2.00592 0 
675623880 1 39 3.31036e-05 5.33242 2.02412 0 
1098969799 2 24 5.39379e-05 2.04727 5.4998 0 
1036977073 2 33 5.7056e-05 3.13566 2.65363 0 
52223168 1 38 2.44933e-05 4.96778 2.00592 0 
347808171 1 27 8.11197e-05 2.03933 4.54182 0 
1611109259 2 15 1.69481e-05 4.1261 7.86682 0 
477812141 1 32 8.81484e-05 3.0471 2.72662 0 
517852891 2 14 7.51268e-05 4.54335 7.96019 0 
287234306 1 22 4.50914e-05 2.3025 6.29952 0 
702350450 1 26 5.4176e-05 2.01567 4.75093 0 
514493324 1 35 5.96344e-05 4.05833 2.15262 0 
600811859 2 35 7.36555e-05 4.03563 2.16161 0 
1325283727 1 19 8.04176e-05 3.05648 7.28219 0 
1506455822 2 19 1.17601e-05 2.89407 7.12968 0 
401925693 1 31 8.21419e-05 2.64013 3.15544 0 
1002491722 1 16 7.77763e-05 3.95212 7.80533 0 
1944640156 1 23 8.9548e-05 2.13506 5.87167 0 
90103122 2 24 1.28521e-05 2.08727 5.70948 0 
2017412656 2 29 3.01823e-05 2.31363 3.67682 0 
1838203281 1 23 6.18496e-05 2.19527 6.05697 0 
1323935580 2 22 6.14174e-06 2.30079 6.29588 0 
610408325 2 35 3.74273e-05 3.72273 2.28549 0 
434024391 1 27 5.6054e-05 2.02856 4.59829 0 
2079736991 1 34 4.75466e-05 3.48957 2.41366 0 
1018975267 1 31 3.57325e-05 2.67168 3.1173 0 
1563057255 1 35 5.11341e-05 3.89139 2.21871 0 
1801528311 1 22 7.78173e-05 2.26546 6.2208 0 
1474714251 2 14 5.83315e-05 4.64539 7.97308 0 
1543986131 1 21 3.21185e-05 2.42054 6.5232 0 
1379994251 2 27 8.98255e-06 2.04152 4.53035 0 
2051496110 1 21 1.01613e-05 2.38776 6.47155 0 
301181270 2 21 1.69067e-05 2.57198 6.76183 0 
348786017 1 35 1.16106e-05 3.93137 2.20289 0 
1027489911 2 23 3.01446e-05 2.10775 5.7876 0 
1949545861 1 17 3.67309e-05 3.42865 7.55285 0 
468757901 2 26 1.92918e-05 2.00884 4.85943 0 
1283291982 2 22 1.64237e-05 2.21504 6.11366 0 
67435882 1 23 9.84367e-05 2.09965 5.7627 0 
299175509 1 33 2.72913e-06 3.30716 2.52903 0 
1831232043 2 30 6.09936e-05 2.44197 3.44303 0 
1505250175 2 23 3.65253e-05 2.15698 5.93914 0 
34782957 1 39 1.1422e-05 5.36346 2.02804 0 
1040944639 1 36 4.82245e-05 4.3677 2.07115 0 
1732027730 1 22 6.46061e-05 2.31291 6.32163 0 
2107745037 1 34 7.91687e-05 3.48082 2.41847 0 
806305596 2 28 1.0077e-05 2.19327 3.94918 0 
1719232713 1 32 7.43482e-05 2.8499 2.91179 0 
699524945 2 34 1.59283e-05 3.5067 2.40424 0 
2031141014 1 24 8.90053e-05 2.07921 5.66722 0 
1567281147 2 21 6.86794e-05 2.43331 6.54333 0 
2112519611 2 24 2.11018e-06 2.06822 5.60963 0 
1628433954 2 29 4.3204e-05 2.35966 3.579 0 
790349092 2 31 1.81199e-05 2.6156 3.18508 0 
725044778 2 26 2.01466e-05 2.00328 4.9478 0 
779013496 1 35 1.50847e-05 4.01092 2.17139 0 
1776939284 2 38 9.57158e-05 4.91074 2.00592 0 
451609709 1 25 3.54513e-05 2.00283 5.04498 0 
1876629961 2 33 6.30767e-05 3.20588 2.60262 0 
2044007308 2 20 9.4541e-05 2.66553 6.87527 0 
1993855654 1 33 7.96817e-05 3.3072 2.52901 0 
286933963 2 31 5.32489e-05 2.69675 3.087 0 
887214033 1 26 5.95535e-05 2.02085 4.66859 0 
2130686983 1 40 5.35454e-05 5.75338 2.10224 0 
1004702287 2 30 1.31755e-05 2.38368 3.53488 0 
781881182 2 23 4.24559e-05 2.13188 5.86188 0 
1262028819 2 27 7.7954e-05 2.08722 4.29078 0 
1417194107 1 37 1.90604e-05 4.44413 2.05235 0 
154902883 1 32 7.23636e-05 2.86487 2.89774 0 
1674894159 1 28 6.77621e-05 2.19156 3.95445 0 
1541661768 2 37 7.82333e-05 4.73188 2.01599 0 
1991271853 1 36 2.37139e-05 4.23496 2.10523 0 
1414942832 1 25 8.47336e-05 2.00592 5.0941 0 
1930334264 2 26 3.34081e-05 2.00084 4.98666 0 
1440185873 1 24 6.18112e-05 2.05799 5.55599 0 
1184871997 1 30 7.40761e-05 2.46086 3.41327 0 
809769598 1 27 8.25609e-05 2.08983 4.27708 0 
843864646 1 26 7.06133e-05 2.00819 4.86974 0 
1076979253 1 28 6.10193e-07 2.14344 4.10253 0 
1387156884 2 32 5.8131e-05 2.85263 2.90923 0 
1881209783 1 33 5.73269e-05 3.32596 2.51538 0 
1301859639 2 30 5.39423e-05 2.38698 3.52968 0 
312271513 2 26 4.12473e-05 2.02271 4.63904 0 
514013160 2 31 8.89153e-05 2.7121 3.06844 0 
1503536612 1 29 2.76565e-05 2.25616 3.79895 0 
1972613282 1 34 5.11299e-05 3.53595 2.38816 0 
1668584423 1 28 6.80697e-05 2.12919 4.14639 0 
1454711252 2 35 7.09513e-05 3.89371 2.2178 0 
41421980 2 26 1.71684e-05 2.00325 4.94829 0 
367755200 1 33 5.60464e-05 3.33786 2.50673 0 
887692090 1 32 7.61904e-05 2.82954 2.93091 0 
1647409332 1 28 1.44563e-05 2.15985 4.05203 0 
753129732 2 34 2.83145e-05 3.45334 2.43358 0 
927128714 2 33 2.18833e-05 3.21766 2.59406 0 
620180508 2 30 3.96608e-05 2.42433 3.47083 0 
124479409 1 26 3.33541e-05 2.01859 4.70449 0 
344820963 1 35 8.25128e-05 4.03283 2.16271 0 
866999441 1 28 3.17624e-05 2.18158 3.98514 0 
2077444210 2 27 1.82134e-05 2.08824 4.28544 0 
1044680992 1 27 7.39873e-05 2.03638 4.55732 0 
1918765606 2 32 9.31328e-05 2.84 2.92109 0 
1989626616 1 28 1.87178e-05 2.19305 3.94984 0 
2121087746 1 25 9.21438e-05 2.00542 5.08616 0 
2116536627 2 28 6.71658e-05 2.10218 4.22954 0 
ITEM: TIMESTEP
300
ITEM: NUMBER OF TALLIES
181
ITEM: BOX BOUNDS oo rr pp
0 10
0 10
-0.5 0.5
ITEM: TALLIES c_1[1] c_1[2] c_1[3] c_1[4] c_1[5] c_1[6] c_1[7] 
1041652166 2 17 7.5003e-05 3.46595 7.57335 0 
1319104292 2 11 9.99511e-05 5.76321 7.89524 0 
1663177441 2 17 5.84706e-06 3.51267 7.59904 0 
1803009407 1 16 4.83195e-05 4.00074 7.82458 0 
1303738544 1 12 9.90215e-05 5.27468 7.98318 0 
1749104919 2 14 9.60285e-05 4.66437 7.97548 0 
1728197867 1 16 2.22596e-06 3.77285 7.73435 0 
58228585 1 32 9.60006e-05 2.93571 2.83122 0 
1845194258 1 16 6.15895e-05 3.77317 7.73448 0 
442516338 2 23 9.19771e-05 2.17787 6.00341 0 
1668394422 2 9 3.65771e-05 6.34837 7.67543 0 
1559902707 1 21 3.58905e-05 2.49062 6.63363 0 
1373398174 1 22 1.35332e-05 2.29588 6.28546 0 
1290932424 2 18 7.85217e-05 3.22704 7.41275 0 
2076247907 2 23 7.96431e-05 2.16498 5.96376 0 
213258477 1 22 7.70545e-05 2.28165 6.2552 0 
695571701 2 24 2.30782e-05 2.04115 5.4677 0 
1669898982 2 22 4.59887e-06 2.35875 6.41905 0 
218856973 2 24 3.66701e-05 2.08339 5.68913 0 
178916835 2 26 6.97831e-05 2.02265 4.64006 0 
1109593732 2 15 6.30531e-05 4.32756 7.91854 0 
1580550442 1 20 4.35925e-05 2.8061 7.04519 0 
870150362 2 19 6.40028e-06 2.94502 7.17753 0 
1888851080 2 16 4.94656e-05 3.82099 7.75341 0 
827572433 1 15 3.33199e-05 4.20134 7.88613 0 
524821067 2 15 3.69903e-05 4.12573 7.86672 0 
466743763 1 15 6.40018e-05 4.08483 7.85622 0 
305268704 2 20 4.25287e-05 2.67426 6.88581 0 
125744466 2 39 1.43185e-05 5.39252 2.03171 0 
251651913 1 17 3.34775e-05 3.53611 7.61193 0 
1362609667 1 25 1.63668e-05 2.01501 5.23852 0 
789726960 2 20 3.21892e-05 2.68252 6.89581 0 
336040783 2 21 3.47465e-05 2.4802 6.6172 0 
1819418654 1 18 7.82826e-05 3.30869 7.47208 0 
871220382 1 12 3.24755e-05 5.5552 7.94774 0 
1517520783 1 27 4.16992e-05 2.05018 4.48496 0 
2076216256 1 22 1.7459e-05 2.22107 6.12647 0 
443964936 1 20 6.82008e-05 2.77739 7.01049 0 
1838068445 2 23 3.40894e-05 2.19841 6.06665 0 
1032622788 1 9 5.70171e-05 6.51244 7.58523 0 
1328439491 1 18 6.21261e-05 3.1894 7.38541 0 
172226470 2 21 9.28493e-05 2.40606 6.50038 0 
1502122522 1 21 3.79936e-05 2.37867 6.45722 0 
684891084 1 23 9.47684e-05 2.15789 5.94193 0 
330756191 2 22 6.77041e-05 2.3052 6.30526 0 
1992153032 2 23 7.60176e-05 2.13492 5.87123 0 
1457847182 2 15 9.9925e-05 4.42958 7.94474 0 
1333999680 2 24 7.47198e-05 2.05777 5.55484 0 
285583677 1 20 9.55309e-05 2.61421 6.81323 0 
1505415671 2 18 7.72836e-05 3.36081 7.50994 0 
1551255286 2 25 2.64542e-05 2.01958 5.31114 0 
880534180 1 22 1.32073e-05 2.26626 6.22251 0 
904368416 1 19 9.77615e-05 3.05306 7.27898 0 
1718787312 2 20 1.23519e-05 2.59024 6.78425 0 
1533699287 1 33 2.59449e-06 3.22889 2.5859 0 
123617158 1 27 6.23559e-06 2.04529 4.51061 0 
95662364 1 22 4.36589e-06 2.27518 6.24147 0 
1904461050 2 19 6.63622e-05 2.99378 7.22332 0 
1448047804 2 18 9.16021e-05 3.26749 7.44215 0 
1823195193 1 16 4.43083e-05 3.75076 7.7256 0 
1966113077 1 35 6.20303e-05 3.72856 2.28318 0 
497950716 1 24 4.52345e-05 2.05217 5.52548 0 
1297260601 1 21 6.57137e-05 2.41044 6.50728 0 
451675291 1 21 1.91058e-05 2.43015 6.53834 0 
1108155871 2 19 2.06157e-05 2.87852 7.11508 0 
305822216 1 22 3.68846e-05 2.26192 6.21329 0 
196248690 1 25 6.58178e-05 2.00146 5.02315 0 
524491808 2 19 1.48911e-05 2.85137 7.08959 0 
367065211 1 26 2.8014e-05 2.02106 4.66524 0 
875711599 2 22 8.6691e-05 2.2365 6.15926 0 
1757238971 2 44 5.1239e-05 6.9355 2.71027 0 
1659899649 1 36 5.01386e-05 4.32836 2.08125 0 
1769990682 2 19 1.29098e-06 2.95149 7.18361 0 
1281764920 1 20 9.03752e-05 2.73392 6.95793 0 
1067954447 1 19 3.38297e-05 2.97302 7.20382 0 
1728805190 2 25 3.2702e-05 2.01304 5.20728 0 
819971812 2 23 6.38861e-05 2.1563 5.93704 0 
2015163330 1 11 8.19252e-05 5.82389 7.87966 0 
485327619 1 18 7.21926e-05 3.26946 7.44358 0 
967928975 2 40 5.09163e-05 5.64056 2.07327 0 
528025954 2 25 6.6698e-05 2.0055 5.08746 0 
857912235 2 16 7.62772e-06 3.84136 7.76148 0 
2043377322 2 35 3.36196e-05 3.75811 2.27148 0 
701880050 2 11 2.37043e-05 5.84205 7.87499 0 
565396445 2 22 1.51446e-05 2.35146 6.40356 0 
149083427 2 16 4.36701e-06 3.9655 7.81063 0 
1732338913 1 20 5.09363e-06 2.66106 6.86986 0 
1536615538 2 28 3.96531e-06 2.1205 4.17315 0 
190376538 1 25 4.13256e-05 2.01919 5.30498 0 
1000523763 2 28 5.90582e-05 2.16354 4.04069 0 
1034475400 1 10 1.18154e-05 6.19058 7.74883 0 
507917356 1 30 1.28565e-05 2.46995 3.39895 0 
1087091750 2 20 5.13892e-05 2.76388 6.99415 0 
1652721232 2 35 9.89623e-06 3.75608 2.27229 0 
498583069 1 26 1.10932e-05 2.02038 4.67607 0 
1245387842 1 22 6.91948e-05 2.25985 6.20888 0 
1016958406 1 23 5.48675e-05 2.12032 5.8263 0 
1497376695 2 25 7.15563e-05 2.00138 5.02194 0 
142885755 2 32 5.56508e-05 2.86902 2.89384 0 
833447309 1 23 8.08582e-05 2.2031 6.08108 0 
1312925075 1 27 8.45326e-05 2.03482 4.56549 0 
1766267293 1 20 2.35329e-05 2.76135 6.99109 0 
1129210799 1 19 5.18619e-05 2.95716 7.18893 0 
120491126 2 36 2.19594e-05 4.11587 2.13581 0 
1231412609 2 28 2.97494e-05 2.17938 3.99194 0 
612478341 2 34 3.70949e-05 3.53119 2.39078 0 
2116592610 1 25 8.37663e-05 2.00898 5.14266 0 
756351359 1 29 2.76257e-05 2.21596 3.88438 0 
730626936 2 24 7.21279e-05 2.05001 5.51417 0 
1893398026 1 36 1.63873e-05 4.14259 2.12895 0 
3928677 2 37 9.85392e-06 4.79492 2.00803 0 
172566623 1 28 9.44826e-05 2.19894 3.93174 0 
1039014719 1 11 8.85928e-05 5.7982 7.88625 0 
922865089 1 28 3.46447e-05 2.12034 4.17364 0 
735574240 2 31 4.58678e-05 2.75392 3.01789 0 
1623318773 2 32 4.14645e-05 2.88961 2.8745 0 
701448024 2 33 9.96343e-05 3.09247 2.68502 0 
2001997692 2 13 3.06492e-05 4.93656 7.99408 0 
412634123 2 29 1.89413e-05 2.24036 3.83253 0 
1903530112 2 29 5.11033e-05 2.22946 3.85571 0 
188172094 2 34 8.68264e-05 3.5969 2.35465 0 
1249565445 1 29 4.077e-05 2.21094 3.89505 0 
237559629 2 28 3.52938e-05 2.16616 4.03262 0 
1481694565 1 28 1.41418e-05 2.12111 4.17126 0 
964102350 1 31 5.66983e-05 2.74192 3.0324 0 
715533193 1 29 2.61544e-05 2.37056 3.55584 0 
1573713382 2 32 6.67883e-05 2.98498 2.78495 0 
1827193167 1 36 5.39904e-05 4.32374 2.08244 0 
1280756491 1 28 7.85235e-05 2.20558 3.9113 0 
2068980793 2 31 5.59899e-05 2.68296 3.10366 0 
2050872017 1 34 3.956e-05 3.667 2.31612 0 
1975223914 2 29 3.62178e-08 2.34277 3.6149 0 
342214504 2 32 6.49464e-05 2.87326 2.88986 0 
1837604597 1 33 1.0034e-05 3.38499 2.47249 0 
761130281 2 33 3.2667e-05 3.32822 2.51373 0 
897957874 2 31 6.4179e-05 2.67409 3.11438 0 
944610885 1 28 8.75059e-05 2.16565 4.03418 0 
552447289 1 37 8.46063e-05 4.48913 2.04666 0 
1181031781 2 30 3.71955e-05 2.38319 3.53565 0 
1201187455 1 24 5.84602e-05 2.03438 5.4322 0 
56132130 2 32 2.1281e-05 2.91636 2.84939 0 
1368415389 2 33 7.01405e-05 3.34971 2.49812 0 
1633177056 2 33 7.45927e-05 3.1485 2.64431 0 
587118155 1 31 9.4012e-11 2.66845 3.12121 0 
1525093747 1 38 2.63042e-05 4.97137 2.00592 0 
1954861190 1 25 6.88449e-05 2.00781 5.12422 0 
724070898 2 29 2.02755e-05 2.32522 3.65221 0 
66006148 1 33 8.27115e-05 3.25717 2.56535 0 
277979691 1 17 1.59559e-05 3.54378 7.61614 0 
1364662813 2 42 2.25135e-05 6.39059 2.34778 0 
162682720 2 35 5.59645e-05 3.92064 2.20713 0 
1864416390 1 36 8.11366e-05 4.43706 2.05334 0 
2035846593 2 31 7.63895e-05 2.61037 3.19141 0 
1504423304 1 33 9.72942e-05 3.29351 2.53895 0 
498464356 2 37 8.50695e-05 4.54019 2.04021 0 
1550503957 2 12 8.51116e-05 5.3571 7.97276 0 
1470099341 2 26 9.97971e-05 2.02272 4.6389 0 
981035162 1 31 1.40342e-05 2.64439 3.15029 0 
2009183365 2 30 4.87139e-05 2.44302 3.44138 0 
747971281 1 28 4.64826e-05 2.12068 4.17258 0 
520152500 2 35 3.30791e-05 4.05377 2.15442 0 
896628945 2 36 1.63097e-06 4.10237 2.13928 0 
798490589 1 32 2.80285e-05 3.07681 2.69872 0 
1886863884 1 29 7.28462e-05 2.32174 3.65959 0 
1196026678 1 28 7.26441e-06 2.1961 3.94046 0 
187622085 2 31 9.27595e-05 2.73855 3.03646 0 
2096854411 1 28 9.64267e-05 2.13091 4.14109 0 
778417230 1 30 2.24281e-06 2.57155 3.23885 0 
172390611 2 32 4.10392e-05 2.88983 2.8743 0 
1752607626 1 33 8.0088e-05 3.09388 2.68399 0 
1614811445 1 30 2.81762e-05 2.40344 3.50374 0 
918529000 2 33 3.79453e-05 3.35015 2.4978 0 
1719720767 1 33 8.44253e-05 3.38681 2.47117 0 
450389967 1 31 2.15808e-05 2.75146 3.02087 0 
470888252 2 35 9.24607e-05 3.87806 2.22399 0 
1025017949 2 32 4.25116e-05 2.86542 2.89723 0 
700579057 2 34 6.54132e-05 3.57473 2.36685 0 
1228536230 2 28 3.89105e-05 2.09984 4.23672 0 
1255592310 1 29 6.35162e-05 2.22637 3.86226 0 
17981756 1 34 4.27286e-06 3.56088 2.37446 0 
346847129 1 30 4.39113e-05 2.39875 3.51113 0 
ITEM: TIMESTEP
400
ITEM: NUMBER OF TALLIES
191
ITEM: BOX BOUNDS oo rr pp
0 10
0 10
-0.5 0.5
ITEM: TALLIES c_1[1] c_1[2] c_1[3] c_1[4] c_1[5] c_1[6] c_1[7] 
1698262604 2 11 8.05442e-05 5.85214 7.8724 0 
1041652166 2 17 7.12691e-05 3.62687 7.66182 0 
443635295 2 21 8.37161e-05 2.44019 6.55416 0 
1598516732 2 14 9.58841e-05 4.50768 7.95568 0 
2121484133 2 20 3.57231e-05 2.74 6.96529 0 
1703812099 2 13 1.05115e-06 5.06902 7.99408 0 
165246470 2 11 8.94385e-05 5.83009 7.87807 0 
1894105652 1 23 1.43805e-05 2.10608 5.78249 0 
572217023 2 18 1.61251e-05 3.32426 7.48339 0 
463489406 1 16 8.46754e-05 3.78691 7.73992 0 
478598704 1 21 6.58454e-05 2.56146 6.74525 0 
1319069395 1 18 9.10377e-05 3.19083 7.38645 0 
1034225736 2 29 2.46975e-06 2.34387 3.61257 0 
368423469 1 23 1.99005e-05 2.18068 6.01208 0 
1751398462 2 16 3.75705e-05 3.83951 7.76074 0 
802098353 1 18 1.21461e-05 3.19423 7.38892 0 
1836313629 2 21 3.07009e-05 2.4377 6.55023 0 
2116113628 1 11 6.42756e-05 5.85592 7.87143 0 
1585253691 2 9 7.44645e-06 6.39449 7.65008 0 
1832206154 1 19 4.23187e-05 3.00859 7.23722 0 
1089171961 2 20 8.40571e-05 2.59627 6.79154 0 
1824385620 1 14 1.03769e-05 4.44879 7.94824 0 
793433501 1 39 1.10539e-05 5.26777 2.01595 0 
1625048146 2 12 3.70899e-05 5.30128 7.97982 0 
655519159 1 18 6.23634e-05 3.322 7.48175 0 
1309541674 2 16 5.51005e-05 3.85445 7.76666 0 
637609416 2 16 1.72322e-05 3.79593 7.74349 0 
1739546807 2 25 4.75995e-05 2.01808 5.28739 0 
27359892 1 18 6.36087e-05 3.37702 7.52172 0 
403325840 2 10 6.24602e-05 6.049 7.80489 0 
1565397804 2 13 5.94963e-05 4.94615 7.99408 0 
1459639403 1 23 3.128e-05 2.20962 6.10113 0 
1576226924 2 21 5.92236e-05 2.37245 6.44742 0 
384096184 1 22 2.66139e-05 2.26364 6.21694 0 
1157919626 1 20 2.33732e-05 2.78964 7.02529 0 
1387867828 1 16 8.52306e-05 3.77611 7.73564 0 
1085832347 1 19 3.77671e-05 3.05577 7.28152 0 
1119011777 1 22 3.04416e-05 2.21646 6.11668 0 
2032724461 2 19 7.63039e-05 2.95752 7.18927 0 
262874190 1 18 3.05132e-05 3.15695 7.36183 0 
1278552817 2 16 6.2499e-05 4.02003 7.83222 0 
1686221092 1 32 2.38877e-05 3.02875 2.74384 0 
2095849011 2 18 1.63338e-05 3.3605 7.50972 0 
751702970 1 21 7.36327e-05 2.3729 6.44812 0 
983002431 2 29 5.89712e-05 2.24751 3.81734 0 
1945657219 1 26 3.38794e-05 2.01203 4.80874 0 
1267910536 1 10 3.33804e-05 6.05038 7.80434 0 
1137967078 2 19 7.52587e-05 2.95644 7.18825 0 
51838356 2 28 3.07404e-05 2.10271 4.22788 0 
1939239935 2 14 1.2841e-06 4.67775 7.97717 0 
1831990474 1 22 7.2612e-05 2.28767 6.268 0 
1877085238 2 16 9.46574e-05 3.80989 7.74902 0 
2006565634 2 18 7.70407e-05 3.22288 7.40974 0 
567154988 1 15 2.31329e-05 4.09233 7.85815 0 
1073694346 1 24 1.9292e-05 2.08031 5.673 0 
2041547621 1 25 3.23445e-05 2.00994 5.15799 0 
1428911476 1 22 2.64126e-05 2.335 6.36859 0 
1196940868 2 24 8.4735e-05 2.08559 5.70067 0 
783103656 2 18 4.36574e-05 3.28194 7.45264 0 
1496996981 2 25 2.79806e-05 2.01108 5.17608 0 
1468804344 1 12 6.22957e-05 5.31726 7.9778 0 
904368416 1 15 5.40745e-05 4.13028 7.86789 0 
141923945 2 21 8.32931e-05 2.39464 6.48238 0 
1696287074 2 21 2.15868e-05 2.41121 6.5085 0 
363937004 1 24 8.98492e-05 2.05441 5.53722 0 
1928039787 2 40 2.36947e-05 5.82703 2.12115 0 
1975276402 2 42 8.28172e-05 6.30534 2.30091 0 
1395774049 1 18 4.26322e-05 3.37117 7.51747 0 
2029409771 2 22 7.42859e-05 2.32352 6.34419 0 
332931596 2 21 5.22606e-05 2.51139 6.66635 0 
711491519 2 14 4.64849e-05 4.72521 7.98316 0 
976467787 2 27 1.17465e-05 2.07764 4.34098 0 
408246423 2 35 2.16468e-05 3.80489 2.25296 0 
1395437818 2 18 8.85346e-05 3.39221 7.53276 0 
681762170 2 16 2.72809e-05 3.74439 7.72308 0 
137146829 1 19 5.92156e-06 3.05511 7.28091 0 
2062575120 2 24 3.50569e-05 2.03452 5.43294 0 
347115771 1 31 8.55011e-05 2.75717 3.01396 0 
987710534 1 31 7.72008e-05 2.79357 2.96995 0 
512125605 1 21 9.02346e-05 2.50992 6.66405 0 
645103932 2 31 8.59126e-05 2.63825 3.15771 0 
240116737 1 21 8.31354e-05 2.56782 6.75528 0 
2107190308 1 22 9.82091e-05 2.23744 6.16125 0 
710064542 2 25 7.15978e-05 2.00868 5.13789 0 
1592086290 1 24 5.61771e-05 2.03607 5.44106 0 
1704038727 2 26 7.98212e-05 2.02211 4.64863 0 
1517887717 2 39 8.75976e-05 5.45949 2.04017 0 
1805622295 1 16 2.50535e-05 4.03864 7.83959 0 
1435514866 2 21 7.87468e-05 2.37533 6.45196 0 
1278819072 1 26 2.44918e-06 2.01043 4.83419 0 
1705604879 2 21 2.5608e-05 2.42799 6.53494 0 
1137060514 1 9 2.69152e-05 6.56437 7.55668 0 
782644769 2 22 4.79077e-05 2.21102 6.10511 0 
341913887 1 25 3.21695e-05 2.01404 5.22322 0 
1654796717 2 24 7.68264e-05 2.04258 5.47522 0 
1546925016 2 25 3.89165e-05 2.00084 5.01335 0 
146839788 2 27 3.90996e-05 2.0601 4.43296 0 
300344421 2 46 1.26938e-05 7.4449 3.26477 0 
1518646340 1 22 4.60918e-05 2.32138 6.33965 0 
1659777850 2 30 5.68449e-05 2.38585 3.53147 0 
952083999 1 32 2.38137e-06 2.82767 2.93267 0 
1483631120 2 34 8.44305e-05 3.52953 2.39169 0 
751733979 1 31 7.32186e-05 2.64434 3.15035 0 
20548392 2 26 4.11791e-05 2.00822 4.86934 0 
1851342042 1 8 8.15805e-05 6.87958 7.33529 0 
1547964598 1 28 8.55464e-05 2.10265 4.22807 0 
78442810 2 17 9.02008e-05 3.54764 7.61826 0 
1030807996 2 30 8.4138e-05 2.56291 3.25247 0 
1296238341 1 23 2.22884e-05 2.13602 5.87462 0 
2079657418 1 25 1.45666e-05 2.01884 5.29941 0 
1089795000 1 38 1.55106e-05 5.04438 2.00592 0 
2027113540 2 37 4.27994e-05 4.45242 2.0513 0 
743150221 2 26 2.03697e-05 2.00421 4.93305 0 
209768837 1 27 1.92877e-05 2.0939 4.25576 0 
1239391582 1 13 7.52481e-05 5.07581 7.99408 0 
1542719109 2 27 3.52261e-06 2.05137 4.47872 0 
1212681058 1 36 2.66123e-05 4.40806 2.06079 0 
2118388144 1 20 3.53344e-05 2.68897 6.9036 0 
340679399 1 23 7.37442e-05 2.10403 5.77616 0 
497120978 1 37 2.55188e-06 4.62895 2.029 0 
1570906576 1 10 8.21564e-05 6.03612 7.80998 0 
1263422807 2 37 6.04979e-05 4.77901 2.01004 0 
240965409 2 14 6.68072e-05 4.61708 7.9695 0 
1422407581 2 30 5.958e-05 2.53249 3.3004 0 
1004360412 1 22 9.23182e-05 2.26774 6.22566 0 
1465769316 1 33 3.60663e-05 3.13615 2.65328 0 
1709900776 2 39 6.27559e-05 5.37698 2.02975 0 
765261939 1 30 2.48295e-05 2.52529 3.31174 0 
742865679 1 32 4.6286e-05 2.99899 2.77179 0 
1830180291 1 34 5.10339e-05 3.41714 2.45348 0 
1371872535 2 27 6.46576e-05 2.02795 4.60151 0 
177014897 1 34 6.64212e-05 3.49157 2.41256 0 
1991774332 2 40 5.72671e-05 5.72238 2.09428 0 
637281947 2 29 5.16085e-05 2.3683 3.56065 0 
1107606931 1 38 8.44497e-05 4.86389 2.00592 0 
1584665996 1 30 4.93274e-05 2.39216 3.52153 0 
178376513 2 29 2.22672e-05 2.34774 3.60435 0 
1407780881 2 17 8.13282e-05 3.47254 7.57697 0 
251546201 2 28 9.4357e-05 2.10566 4.21883 0 
1156969905 1 17 5.58558e-05 3.62685 7.66181 0 
1941148189 1 29 3.68534e-06 2.23376 3.84655 0 
1810535557 1 33 3.69838e-05 3.23247 2.5833 0 
2076923905 1 30 7.46016e-05 2.55865 3.25918 0 
814143176 1 33 9.12775e-05 3.16964 2.62895 0 
1466526136 1 28 6.2674e-05 2.11965 4.17577 0 
183233876 1 28 9.8398e-05 2.196 3.94078 0 
1123967516 1 36 9.21764e-07 4.22502 2.10778 0 
1505601454 1 15 2.75951e-05 4.1915 7.88361 0 
1533846532 2 33 9.06345e-05 3.21582 2.59539 0 
2069539613 2 29 5.19344e-05 2.32449 3.65375 0 
2137308021 2 38 4.65598e-05 4.91365 2.00592 0 
1965536211 1 37 4.24156e-05 4.45171 2.05139 0 
1422788811 2 42 4.96e-05 6.52667 2.42259 0 
1294318171 2 36 9.88922e-05 4.20579 2.11272 0 
590044664 2 33 2.49512e-05 3.12697 2.65995 0 
517898333 1 39 1.60112e-05 5.34171 2.02529 0 
1468760380 2 44 3.39709e-06 7.10104 2.86572 0 
1497508594 1 27 5.39219e-05 2.04839 4.49436 0 
1209308484 1 33 5.84437e-05 3.25152 2.56946 0 
2134042102 2 34 2.6644e-05 3.53389 2.3893 0 
2145629552 1 37 6.02984e-05 4.65061 2.02626 0 
142741133 2 34 7.42625e-05 3.5505 2.38017 0 
105913657 2 34 9.88263e-05 3.55779 2.37616 0 
1577262331 1 31 6.2711e-05 2.64681 3.14737 0 
476715473 2 34 4.10566e-05 3.61349 2.34554 0 
834970738 2 34 1.08374e-05 3.42992 2.44645 0 
610469140 2 33 5.07327e-05 3.30481 2.53074 0 
934304958 2 34 1.16657e-05 3.48246 2.41757 0 
504714199 1 35 6.39429e-05 4.05696 2.15316 0 