ITEM: TIMESTEP
0
ITEM: NUMBER OF CELLS
4096
ITEM: BOX BOUNDS rr rr rr
0 0.00016
0 0.00016
0 0.00016
ITEM: CELLS id c_2[1] c_2[2] c_2[3] c_2[4] c_2[5] c_2[6] f_1[1] f_1[2] f_1[3] 
1 0 0 0 0 0 0 0 0 0 
5 0 0 0 0 0 0 0 0 0 
17 0 0 0 0 0 0 0 0 0 
21 0 0 0 0 0 0 0 0 0 
33 0 0 0 0 0 0 0 0 0 
37 0 0 0 0 0 0 0 0 0 
49 0 0 0 0 0 0 0 0 0 
53 0 0 0 0 0 0 0 0 0 
65 0 0 0 0 0 0 0 0 0 
69 0 0 0 0 0 0 0 0 0 
81 0 0 0 0 0 0 0 0 0 
85 0 0 0 0 0 0 0 0 0 
97 0 0 0 0 0 0 0 0 0 
101 0 0 0 0 0 0 0 0 0 
113 0 0 0 0 0 0 0 0 0 
117 0 0 0 0 0 0 0 0 0 
257 0 0 0 0 0 0 0 0 0 
261 0 0 0 0 0 0 0 0 0 
273 0 0 0 0 0 0 0 0 0 
277 0 0 0 0 0 0 0 0 0 
289 0 0 0 0 0 0 0 0 0 
293 0 0 0 0 0 0 0 0 0 
305 0 0 0 0 0 0 0 0 0 
309 0 0 0 0 0 0 0 0 0 
321 0 0 0 0 0 0 0 0 0 
325 0 0 0 0 0 0 0 0 0 
337 0 0 0 0 0 0 0 0 0 
341 0 0 0 0 0 0 0 0 0 
353 0 0 0 0 0 0 0 0 0 
357 0 0 0 0 0 0 0 0 0 
369 0 0 0 0 0 0 0 0 0 
373 0 0 0 0 0 0 0 0 0 
513 0 0 0 0 0 0 0 0 0 
517 0 0 0 0 0 0 0 0 0 
529 0 0 0 0 0 0 0 0 0 
533 0 0 0 0 0 0 0 0 0 
545 0 0 0 0 0 0 0 0 0 
549 0 0 0 0 0 0 0 0 0 
561 0 0 0 0 0 0 0 0 0 
565 0 0 0 0 0 0 0 0 0 
577 0 0 0 0 0 0 0 0 0 
581 0 0 0 0 0 0 0 0 0 
593 0 0 0 0 0 0 0 0 0 
597 0 0 0 0 0 0 0 0 0 
609 0 0 0 0 0 0 0 0 0 
613 0 0 0 0 0 0 0 0 0 
625 0 0 0 0 0 0 0 0 0 
629 0 0 0 0 0 0 0 0 0 
769 0 0 0 0 0 0 0 0 0 
773 0 0 0 0 0 0 0 0 0 
785 0 0 0 0 0 0 0 0 0 
789 0 0 0 0 0 0 0 0 0 
801 0 0 0 0 0 0 0 0 0 
805 0 0 0 0 0 0 0 0 0 
817 0 0 0 0 0 0 0 0 0 
821 0 0 0 0 0 0 0 0 0 
833 0 0 0 0 0 0 0 0 0 
837 0 0 0 0 0 0 0 0 0 
849 0 0 0 0 0 0 0 0 0 
853 0 0 0 0 0 0 0 0 0 
865 0 0 0 0 0 0 0 0 0 
869 0 0 0 0 0 0 0 0 0 
881 0 0 0 0 0 0 0 0 0 
885 0 0 0 0 0 0 0 0 0 
1025 0 0 0 0 0 0 0 0 0 
1029 0 0 0 0 0 0 0 0 0 
1041 0 0 0 0 0 0 0 0 0 
1045 0 0 0 0 0 0 0 0 0 
1057 0 0 0 0 0 0 0 0 0 
1061 0 0 0 0 0 0 0 0 0 
1073 0 0 0 0 0 0 0 0 0 
1077 0 0 0 0 0 0 0 0 0 
1089 0 0 0 0 0 0 0 0 0 
1093 0 0 0 0 0 0 0 0 0 
1105 0 0 0 0 0 0 0 0 0 
1109 0 0 0 0 0 0 0 0 0 
1121 0 0 0 0 0 0 0 0 0 
1125 0 0 0 0 0 0 0 0 0 
1137 0 0 0 0 0 0 0 0 0 
1141 0 0 0 0 0 0 0 0 0 
1281 0 0 0 0 0 0 0 0 0 
1285 0 0 0 0 0 0 0 0 0 
1297 0 0 0 0 0 0 0 0 0 
1301 0 0 0 0 0 0 0 0 0 
1313 0 0 0 0 0 0 0 0 0 
1317 0 0 0 0 0 0 0 0 0 
1329 0 0 0 0 0 0 0 0 0 
1333 0 0 0 0 0 0 0 0 0 
1345 0 0 0 0 0 0 0 0 0 
1349 0 0 0 0 0 0 0 0 0 
1361 0 0 0 0 0 0 0 0 0 
1365 0 0 0 0 0 0 0 0 0 
1377 0 0 0 0 0 0 0 0 0 
1381 0 0 0 0 0 0 0 0 0 
1393 0 0 0 0 0 0 0 0 0 
1397 0 0 0 0 0 0 0 0 0 
1537 0 0 0 0 0 0 0 0 0 
1541 0 0 0 0 0 0 0 0 0 
1553 0 0 0 0 0 0 0 0 0 
1557 0 0 0 0 0 0 0 0 0 
1569 0 0 0 0 0 0 0 0 0 
1573 0 0 0 0 0 0 0 0 0 
1585 0 0 0 0 0 0 0 0 0 
1589 0 0 0 0 0 0 0 0 0 
1601 0 0 0 0 0 0 0 0 0 
1605 0 0 0 0 0 0 0 0 0 
1617 0 0 0 0 0 0 0 0 0 
1621 0 0 0 0 0 0 0 0 0 
1633 0 0 0 0 0 0 0 0 0 
1637 0 0 0 0 0 0 0 0 0 
1649 0 0 0 0 0 0 0 0 0 
1653 0 0 0 0 0 0 0 0 0 
1793 0 0 0 0 0 0 0 0 0 
1797 0 0 0 0 0 0 0 0 0 
1809 0 0 0 0 0 0 0 0 0 
1813 0 0 0 0 0 0 0 0 0 
1825 0 0 0 0 0 0 0 0 0 
1829 0 0 0 0 0 0 0 0 0 
1841 0 0 0 0 0 0 0 0 0 
1845 0 0 0 0 0 0 0 0 0 
1857 0 0 0 0 0 0 0 0 0 
1861 0 0 0 0 0 0 0 0 0 
1873 0 0 0 0 0 0 0 0 0 
1877 0 0 0 0 0 0 0 0 0 
1889 0 0 0 0 0 0 0 0 0 
1893 0 0 0 0 0 0 0 0 0 
1905 0 0 0 0 0 0 0 0 0 
1909 0 0 0 0 0 0 0 0 0 
2049 0 0 0 0 0 0 0 0 0 
2053 0 0 0 0 0 0 0 0 0 
2065 0 0 0 0 0 0 0 0 0 
2069 0 0 0 0 0 0 0 0 0 
2081 0 0 0 0 0 0 0 0 0 
2085 0 0 0 0 0 0 0 0 0 
2097 0 0 0 0 0 0 0 0 0 
2101 0 0 0 0 0 0 0 0 0 
2113 0 0 0 0 0 0 0 0 0 
2117 0 0 0 0 0 0 0 0 0 
2129 0 0 0 0 0 0 0 0 0 
2133 0 0 0 0 0 0 0 0 0 
2145 0 0 0 0 0 0 0 0 0 
2149 0 0 0 0 0 0 0 0 0 
2161 0 0 0 0 0 0 0 0 0 
2165 0 0 0 0 0 0 0 0 0 
2305 0 0 0 0 0 0 0 0 0 
2309 0 0 0 0 0 0 0 0 0 
2321 0 0 0 0 0 0 0 0 0 
2325 0 0 0 0 0 0 0 0 0 
2337 0 0 0 0 0 0 0 0 0 
2341 0 0 0 0 0 0 0 0 0 
2353 0 0 0 0 0 0 0 0 0 
2357 0 0 0 0 0 0 0 0 0 
2369 0 0 0 0 0 0 0 0 0 
2373 0 0 0 0 0 0 0 0 0 
2385 0 0 0 0 0 0 0 0 0 
2389 0 0 0 0 0 0 0 0 0 
2401 0 0 0 0 0 0 0 0 0 
2405 0 0 0 0 0 0 0 0 0 
2417 0 0 0 0 0 0 0 0 0 
2421 0 0 0 0 0 0 0 0 0 
2561 0 0 0 0 0 0 0 0 0 
2565 0 0 0 0 0 0 0 0 0 
2577 0 0 0 0 0 0 0 0 0 
2581 0 0 0 0 0 0 0 0 0 
2593 0 0 0 0 0 0 0 0 0 
2597 0 0 0 0 0 0 0 0 0 
2609 0 0 0 0 0 0 0 0 0 
2613 0 0 0 0 0 0 0 0 0 
2625 0 0 0 0 0 0 0 0 0 
2629 0 0 0 0 0 0 0 0 0 
2641 0 0 0 0 0 0 0 0 0 
2645 0 0 0 0 0 0 0 0 0 
2657 0 0 0 0 0 0 0 0 0 
2661 0 0 0 0 0 0 0 0 0 
2673 0 0 0 0 0 0 0 0 0 
2677 0 0 0 0 0 0 0 0 0 
2817 0 0 0 0 0 0 0 0 0 
2821 0 0 0 0 0 0 0 0 0 
2833 0 0 0 0 0 0 0 0 0 
2837 0 0 0 0 0 0 0 0 0 
2849 0 0 0 0 0 0 0 0 0 
2853 0 0 0 0 0 0 0 0 0 
2865 0 0 0 0 0 0 0 0 0 
2869 0 0 0 0 0 0 0 0 0 
2881 0 0 0 0 0 0 0 0 0 
2885 0 0 0 0 0 0 0 0 0 
2897 0 0 0 0 0 0 0 0 0 
2901 0 0 0 0 0 0 0 0 0 
2913 0 0 0 0 0 0 0 0 0 
2917 0 0 0 0 0 0 0 0 0 
2929 0 0 0 0 0 0 0 0 0 
2933 0 0 0 0 0 0 0 0 0 
3073 0 0 0 0 0 0 0 0 0 
3077 0 0 0 0 0 0 0 0 0 
3089 0 0 0 0 0 0 0 0 0 
3093 0 0 0 0 0 0 0 0 0 
3105 0 0 0 0 0 0 0 0 0 
3109 0 0 0 0 0 0 0 0 0 
3121 0 0 0 0 0 0 0 0 0 
3125 0 0 0 0 0 0 0 0 0 
3137 0 0 0 0 0 0 0 0 0 
3141 0 0 0 0 0 0 0 0 0 
3153 0 0 0 0 0 0 0 0 0 
3157 0 0 0 0 0 0 0 0 0 
3169 0 0 0 0 0 0 0 0 0 
3173 0 0 0 0 0 0 0 0 0 
3185 0 0 0 0 0 0 0 0 0 
3189 0 0 0 0 0 0 0 0 0 
3329 0 0 0 0 0 0 0 0 0 
3333 0 0 0 0 0 0 0 0 0 
3345 0 0 0 0 0 0 0 0 0 
3349 0 0 0 0 0 0 0 0 0 
3361 0 0 0 0 0 0 0 0 0 
3365 0 0 0 0 0 0 0 0 0 
3377 0 0 0 0 0 0 0 0 0 
3381 0 0 0 0 0 0 0 0 0 
3393 0 0 0 0 0 0 0 0 0 
3397 0 0 0 0 0 0 0 0 0 
3409 0 0 0 0 0 0 0 0 0 
3413 0 0 0 0 0 0 0 0 0 
3425 0 0 0 0 0 0 0 0 0 
3429 0 0 0 0 0 0 0 0 0 
3441 0 0 0 0 0 0 0 0 0 
3445 0 0 0 0 0 0 0 0 0 
3585 0 0 0 0 0 0 0 0 0 
3589 0 0 0 0 0 0 0 0 0 
3601 0 0 0 0 0 0 0 0 0 
3605 0 0 0 0 0 0 0 0 0 
3617 0 0 0 0 0 0 0 0 0 
3621 0 0 0 0 0 0 0 0 0 
3633 0 0 0 0 0 0 0 0 0 
3637 0 0 0 0 0 0 0 0 0 
3649 0 0 0 0 0 0 0 0 0 
3653 0 0 0 0 0 0 0 0 0 
3665 0 0 0 0 0 0 0 0 0 
3669 0 0 0 0 0 0 0 0 0 
3681 0 0 0 0 0 0 0 0 0 
3685 0 0 0 0 0 0 0 0 0 
3697 0 0 0 0 0 0 0 0 0 
3701 0 0 0 0 0 0 0 0 0 
3841 0 0 0 0 0 0 0 0 0 
3845 0 0 0 0 0 0 0 0 0 
3857 0 0 0 0 0 0 0 0 0 
3861 0 0 0 0 0 0 0 0 0 
3873 0 0 0 0 0 0 0 0 0 
3877 0 0 0 0 0 0 0 0 0 
3889 0 0 0 0 0 0 0 0 0 
3893 0 0 0 0 0 0 0 0 0 
3905 0 0 0 0 0 0 0 0 0 
3909 0 0 0 0 0 0 0 0 0 
3921 0 0 0 0 0 0 0 0 0 
3925 0 0 0 0 0 0 0 0 0 
3937 0 0 0 0 0 0 0 0 0 
3941 0 0 0 0 0 0 0 0 0 
3953 0 0 0 0 0 0 0 0 0 
3957 0 0 0 0 0 0 0 0 0 
2 0 0 0 0 0 0 0 0 0 
6 0 0 0 0 0 0 0 0 0 
18 0 0 0 0 0 0 0 0 0 
22 0 0 0 0 0 0 0 0 0 
34 0 0 0 0 0 0 0 0 0 
38 0 0 0 0 0 0 0 0 0 
50 0 0 0 0 0 0 0 0 0 
54 0 0 0 0 0 0 0 0 0 
66 0 0 0 0 0 0 0 0 0 
70 0 0 0 0 0 0 0 0 0 
82 0 0 0 0 0 0 0 0 0 
86 0 0 0 0 0 0 0 0 0 
98 0 0 0 0 0 0 0 0 0 
102 0 0 0 0 0 0 0 0 0 
114 0 0 0 0 0 0 0 0 0 
118 0 0 0 0 0 0 0 0 0 
258 0 0 0 0 0 0 0 0 0 
262 0 0 0 0 0 0 0 0 0 
274 0 0 0 0 0 0 0 0 0 
278 0 0 0 0 0 0 0 0 0 
290 0 0 0 0 0 0 0 0 0 
294 0 0 0 0 0 0 0 0 0 
306 0 0 0 0 0 0 0 0 0 
310 0 0 0 0 0 0 0 0 0 
322 0 0 0 0 0 0 0 0 0 
326 0 0 0 0 0 0 0 0 0 
338 0 0 0 0 0 0 0 0 0 
342 0 0 0 0 0 0 0 0 0 
354 0 0 0 0 0 0 0 0 0 
358 0 0 0 0 0 0 0 0 0 
370 0 0 0 0 0 0 0 0 0 
374 0 0 0 0 0 0 0 0 0 
514 0 0 0 0 0 0 0 0 0 
518 0 0 0 0 0 0 0 0 0 
530 0 0 0 0 0 0 0 0 0 
534 0 0 0 0 0 0 0 0 0 
546 0 0 0 0 0 0 0 0 0 
550 0 0 0 0 0 0 0 0 0 
562 0 0 0 0 0 0 0 0 0 
566 0 0 0 0 0 0 0 0 0 
578 0 0 0 0 0 0 0 0 0 
582 0 0 0 0 0 0 0 0 0 
594 0 0 0 0 0 0 0 0 0 
598 0 0 0 0 0 0 0 0 0 
610 0 0 0 0 0 0 0 0 0 
614 0 0 0 0 0 0 0 0 0 
626 0 0 0 0 0 0 0 0 0 
630 0 0 0 0 0 0 0 0 0 
770 0 0 0 0 0 0 0 0 0 
774 0 0 0 0 0 0 0 0 0 
786 0 0 0 0 0 0 0 0 0 
790 0 0 0 0 0 0 0 0 0 
802 0 0 0 0 0 0 0 0 0 
806 0 0 0 0 0 0 0 0 0 
818 0 0 0 0 0 0 0 0 0 
822 0 0 0 0 0 0 0 0 0 
834 0 0 0 0 0 0 0 0 0 
838 0 0 0 0 0 0 0 0 0 
850 0 0 0 0 0 0 0 0 0 
854 0 0 0 0 0 0 0 0 0 
866 0 0 0 0 0 0 0 0 0 
870 0 0 0 0 0 0 0 0 0 
882 0 0 0 0 0 0 0 0 0 
886 0 0 0 0 0 0 0 0 0 
1026 0 0 0 0 0 0 0 0 0 
1030 0 0 0 0 0 0 0 0 0 
1042 0 0 0 0 0 0 0 0 0 
1046 0 0 0 0 0 0 0 0 0 
1058 0 0 0 0 0 0 0 0 0 
1062 0 0 0 0 0 0 0 0 0 
1074 0 0 0 0 0 0 0 0 0 
1078 0 0 0 0 0 0 0 0 0 
1090 0 0 0 0 0 0 0 0 0 
1094 0 0 0 0 0 0 0 0 0 
1106 0 0 0 0 0 0 0 0 0 
1110 0 0 0 0 0 0 0 0 0 
1122 0 0 0 0 0 0 0 0 0 
1126 0 0 0 0 0 0 0 0 0 
1138 0 0 0 0 0 0 0 0 0 
1142 0 0 0 0 0 0 0 0 0 
1282 0 0 0 0 0 0 0 0 0 
1286 0 0 0 0 0 0 0 0 0 
1298 0 0 0 0 0 0 0 0 0 
1302 0 0 0 0 0 0 0 0 0 
1314 0 0 0 0 0 0 0 0 0 
1318 0 0 0 0 0 0 0 0 0 
1330 0 0 0 0 0 0 0 0 0 
1334 0 0 0 0 0 0 0 0 0 
1346 0 0 0 0 0 0 0 0 0 
1350 0 0 0 0 0 0 0 0 0 
1362 0 0 0 0 0 0 0 0 0 
1366 0 0 0 0 0 0 0 0 0 
1378 0 0 0 0 0 0 0 0 0 
1382 0 0 0 0 0 0 0 0 0 
1394 0 0 0 0 0 0 0 0 0 
1398 0 0 0 0 0 0 0 0 0 
1538 0 0 0 0 0 0 0 0 0 
1542 0 0 0 0 0 0 0 0 0 
1554 0 0 0 0 0 0 0 0 0 
1558 0 0 0 0 0 0 0 0 0 
1570 0 0 0 0 0 0 0 0 0 
1574 0 0 0 0 0 0 0 0 0 
1586 0 0 0 0 0 0 0 0 0 
1590 0 0 0 0 0 0 0 0 0 
1602 0 0 0 0 0 0 0 0 0 
1606 0 0 0 0 0 0 0 0 0 
1618 0 0 0 0 0 0 0 0 0 
1622 0 0 0 0 0 0 0 0 0 
1634 0 0 0 0 0 0 0 0 0 
1638 0 0 0 0 0 0 0 0 0 
1650 0 0 0 0 0 0 0 0 0 
1654 0 0 0 0 0 0 0 0 0 
1794 0 0 0 0 0 0 0 0 0 
1798 0 0 0 0 0 0 0 0 0 
1810 0 0 0 0 0 0 0 0 0 
1814 0 0 0 0 0 0 0 0 0 
1826 0 0 0 0 0 0 0 0 0 
1830 0 0 0 0 0 0 0 0 0 
1842 0 0 0 0 0 0 0 0 0 
1846 0 0 0 0 0 0 0 0 0 
1858 0 0 0 0 0 0 0 0 0 
1862 0 0 0 0 0 0 0 0 0 
1874 0 0 0 0 0 0 0 0 0 
1878 0 0 0 0 0 0 0 0 0 
1890 0 0 0 0 0 0 0 0 0 
1894 0 0 0 0 0 0 0 0 0 
1906 0 0 0 0 0 0 0 0 0 
1910 0 0 0 0 0 0 0 0 0 
2050 0 0 0 0 0 0 0 0 0 
2054 0 0 0 0 0 0 0 0 0 
2066 0 0 0 0 0 0 0 0 0 
2070 0 0 0 0 0 0 0 0 0 
2082 0 0 0 0 0 0 0 0 0 
2086 0 0 0 0 0 0 0 0 0 
2098 0 0 0 0 0 0 0 0 0 
2102 0 0 0 0 0 0 0 0 0 
2114 0 0 0 0 0 0 0 0 0 
2118 0 0 0 0 0 0 0 0 0 
2130 0 0 0 0 0 0 0 0 0 
2134 0 0 0 0 0 0 0 0 0 
2146 0 0 0 0 0 0 0 0 0 
2150 0 0 0 0 0 0 0 0 0 
2162 0 0 0 0 0 0 0 0 0 
2166 0 0 0 0 0 0 0 0 0 
2306 0 0 0 0 0 0 0 0 0 
2310 0 0 0 0 0 0 0 0 0 
2322 0 0 0 0 0 0 0 0 0 
2326 0 0 0 0 0 0 0 0 0 
2338 0 0 0 0 0 0 0 0 0 
2342 0 0 0 0 0 0 0 0 0 
2354 0 0 0 0 0 0 0 0 0 
2358 0 0 0 0 0 0 0 0 0 
2370 0 0 0 0 0 0 0 0 0 
2374 0 0 0 0 0 0 0 0 0 
2386 0 0 0 0 0 0 0 0 0 
2390 0 0 0 0 0 0 0 0 0 
2402 0 0 0 0 0 0 0 0 0 
2406 0 0 0 0 0 0 0 0 0 
2418 0 0 0 0 0 0 0 0 0 
2422 0 0 0 0 0 0 0 0 0 
2562 0 0 0 0 0 0 0 0 0 
2566 0 0 0 0 0 0 0 0 0 
2578 0 0 0 0 0 0 0 0 0 
2582 0 0 0 0 0 0 0 0 0 
2594 0 0 0 0 0 0 0 0 0 
2598 0 0 0 0 0 0 0 0 0 
2610 0 0 0 0 0 0 0 0 0 
2614 0 0 0 0 0 0 0 0 0 
2626 0 0 0 0 0 0 0 0 0 
2630 0 0 0 0 0 0 0 0 0 
2642 0 0 0 0 0 0 0 0 0 
2646 0 0 0 0 0 0 0 0 0 
2658 0 0 0 0 0 0 0 0 0 
2662 0 0 0 0 0 0 0 0 0 
2674 0 0 0 0 0 0 0 0 0 
2678 0 0 0 0 0 0 0 0 0 
2818 0 0 0 0 0 0 0 0 0 
2822 0 0 0 0 0 0 0 0 0 
2834 0 0 0 0 0 0 0 0 0 
2838 0 0 0 0 0 0 0 0 0 
2850 0 0 0 0 0 0 0 0 0 
2854 0 0 0 0 0 0 0 0 0 
2866 0 0 0 0 0 0 0 0 0 
2870 0 0 0 0 0 0 0 0 0 
2882 0 0 0 0 0 0 0 0 0 
2886 0 0 0 0 0 0 0 0 0 
2898 0 0 0 0 0 0 0 0 0 
2902 0 0 0 0 0 0 0 0 0 
2914 0 0 0 0 0 0 0 0 0 
2918 0 0 0 0 0 0 0 0 0 
2930 0 0 0 0 0 0 0 0 0 
2934 0 0 0 0 0 0 0 0 0 
3074 0 0 0 0 0 0 0 0 0 
3078 0 0 0 0 0 0 0 0 0 
3090 0 0 0 0 0 0 0 0 0 
3094 0 0 0 0 0 0 0 0 0 
3106 0 0 0 0 0 0 0 0 0 
3110 0 0 0 0 0 0 0 0 0 
3122 0 0 0 0 0 0 0 0 0 
3126 0 0 0 0 0 0 0 0 0 
3138 0 0 0 0 0 0 0 0 0 
3142 0 0 0 0 0 0 0 0 0 
3154 0 0 0 0 0 0 0 0 0 
3158 0 0 0 0 0 0 0 0 0 
3170 0 0 0 0 0 0 0 0 0 
3174 0 0 0 0 0 0 0 0 0 
3186 0 0 0 0 0 0 0 0 0 
3190 0 0 0 0 0 0 0 0 0 
3330 0 0 0 0 0 0 0 0 0 
3334 0 0 0 0 0 0 0 0 0 
3346 0 0 0 0 0 0 0 0 0 
3350 0 0 0 0 0 0 0 0 0 
3362 0 0 0 0 0 0 0 0 0 
3366 0 0 0 0 0 0 0 0 0 
3378 0 0 0 0 0 0 0 0 0 
3382 0 0 0 0 0 0 0 0 0 
3394 0 0 0 0 0 0 0 0 0 
3398 0 0 0 0 0 0 0 0 0 
3410 0 0 0 0 0 0 0 0 0 
3414 0 0 0 0 0 0 0 0 0 
3426 0 0 0 0 0 0 0 0 0 
3430 0 0 0 0 0 0 0 0 0 
3442 0 0 0 0 0 0 0 0 0 
3446 0 0 0 0 0 0 0 0 0 
3586 0 0 0 0 0 0 0 0 0 
3590 0 0 0 0 0 0 0 0 0 
3602 0 0 0 0 0 0 0 0 0 
3606 0 0 0 0 0 0 0 0 0 
3618 0 0 0 0 0 0 0 0 0 
3622 0 0 0 0 0 0 0 0 0 
3634 0 0 0 0 0 0 0 0 0 
3638 0 0 0 0 0 0 0 0 0 
3650 0 0 0 0 0 0 0 0 0 
3654 0 0 0 0 0 0 0 0 0 
3666 0 0 0 0 0 0 0 0 0 
3670 0 0 0 0 0 0 0 0 0 
3682 0 0 0 0 0 0 0 0 0 
3686 0 0 0 0 0 0 0 0 0 
3698 0 0 0 0 0 0 0 0 0 
3702 0 0 0 0 0 0 0 0 0 
3842 0 0 0 0 0 0 0 0 0 
3846 0 0 0 0 0 0 0 0 0 
3858 0 0 0 0 0 0 0 0 0 
3862 0 0 0 0 0 0 0 0 0 
3874 0 0 0 0 0 0 0 0 0 
3878 0 0 0 0 0 0 0 0 0 
3890 0 0 0 0 0 0 0 0 0 
3894 0 0 0 0 0 0 0 0 0 
3906 0 0 0 0 0 0 0 0 0 
3910 0 0 0 0 0 0 0 0 0 
3922 0 0 0 0 0 0 0 0 0 
3926 0 0 0 0 0 0 0 0 0 
3938 0 0 0 0 0 0 0 0 0 
3942 0 0 0 0 0 0 0 0 0 
3954 0 0 0 0 0 0 0 0 0 
3958 0 0 0 0 0 0 0 0 0 
3 0 0 0 0 0 0 0 0 0 
7 0 0 0 0 0 0 0 0 0 
19 0 0 0 0 0 0 0 0 0 
23 0 0 0 0 0 0 0 0 0 
35 0 0 0 0 0 0 0 0 0 
39 0 0 0 0 0 0 0 0 0 
51 0 0 0 0 0 0 0 0 0 
55 0 0 0 0 0 0 0 0 0 
67 0 0 0 0 0 0 0 0 0 
71 0 0 0 0 0 0 0 0 0 
83 0 0 0 0 0 0 0 0 0 
87 0 0 0 0 0 0 0 0 0 
99 0 0 0 0 0 0 0 0 0 
103 0 0 0 0 0 0 0 0 0 
115 0 0 0 0 0 0 0 0 0 
119 0 0 0 0 0 0 0 0 0 
259 0 0 0 0 0 0 0 0 0 
263 0 0 0 0 0 0 0 0 0 
275 0 0 0 0 0 0 0 0 0 
279 0 0 0 0 0 0 0 0 0 
291 0 0 0 0 0 0 0 0 0 
295 0 0 0 0 0 0 0 0 0 
307 0 0 0 0 0 0 0 0 0 
311 0 0 0 0 0 0 0 0 0 
323 0 0 0 0 0 0 0 0 0 
327 0 0 0 0 0 0 0 0 0 
339 0 0 0 0 0 0 0 0 0 
343 0 0 0 0 0 0 0 0 0 
355 0 0 0 0 0 0 0 0 0 
359 0 0 0 0 0 0 0 0 0 
371 0 0 0 0 0 0 0 0 0 
375 0 0 0 0 0 0 0 0 0 
515 0 0 0 0 0 0 0 0 0 
519 0 0 0 0 0 0 0 0 0 
531 0 0 0 0 0 0 0 0 0 
535 0 0 0 0 0 0 0 0 0 
547 0 0 0 0 0 0 0 0 0 
551 0 0 0 0 0 0 0 0 0 
563 0 0 0 0 0 0 0 0 0 
567 0 0 0 0 0 0 0 0 0 
579 0 0 0 0 0 0 0 0 0 
583 0 0 0 0 0 0 0 0 0 
595 0 0 0 0 0 0 0 0 0 
599 0 0 0 0 0 0 0 0 0 
611 0 0 0 0 0 0 0 0 0 
615 0 0 0 0 0 0 0 0 0 
627 0 0 0 0 0 0 0 0 0 
631 0 0 0 0 0 0 0 0 0 
771 0 0 0 0 0 0 0 0 0 
775 0 0 0 0 0 0 0 0 0 
787 0 0 0 0 0 0 0 0 0 
791 0 0 0 0 0 0 0 0 0 
803 0 0 0 0 0 0 0 0 0 
807 0 0 0 0 0 0 0 0 0 
819 0 0 0 0 0 0 0 0 0 
823 0 0 0 0 0 0 0 0 0 
835 0 0 0 0 0 0 0 0 0 
839 0 0 0 0 0 0 0 0 0 
851 0 0 0 0 0 0 0 0 0 
855 0 0 0 0 0 0 0 0 0 
867 0 0 0 0 0 0 0 0 0 
871 0 0 0 0 0 0 0 0 0 
883 0 0 0 0 0 0 0 0 0 
887 0 0 0 0 0 0 0 0 0 
1027 0 0 0 0 0 0 0 0 0 
1031 0 0 0 0 0 0 0 0 0 
1043 0 0 0 0 0 0 0 0 0 
1047 0 0 0 0 0 0 0 0 0 
1059 0 0 0 0 0 0 0 0 0 
1063 0 0 0 0 0 0 0 0 0 
1075 0 0 0 0 0 0 0 0 0 
1079 0 0 0 0 0 0 0 0 0 
1091 0 0 0 0 0 0 0 0 0 
1095 0 0 0 0 0 0 0 0 0 
1107 0 0 0 0 0 0 0 0 0 
1111 0 0 0 0 0 0 0 0 0 
1123 0 0 0 0 0 0 0 0 0 
1127 0 0 0 0 0 0 0 0 0 
1139 0 0 0 0 0 0 0 0 0 
1143 0 0 0 0 0 0 0 0 0 
1283 0 0 0 0 0 0 0 0 0 
1287 0 0 0 0 0 0 0 0 0 
1299 0 0 0 0 0 0 0 0 0 
1303 0 0 0 0 0 0 0 0 0 
1315 0 0 0 0 0 0 0 0 0 
1319 0 0 0 0 0 0 0 0 0 
1331 0 0 0 0 0 0 0 0 0 
1335 0 0 0 0 0 0 0 0 0 
1347 0 0 0 0 0 0 0 0 0 
1351 0 0 0 0 0 0 0 0 0 
1363 0 0 0 0 0 0 0 0 0 
1367 0 0 0 0 0 0 0 0 0 
1379 0 0 0 0 0 0 0 0 0 
1383 0 0 0 0 0 0 0 0 0 
1395 0 0 0 0 0 0 0 0 0 
1399 0 0 0 0 0 0 0 0 0 
1539 0 0 0 0 0 0 0 0 0 
1543 0 0 0 0 0 0 0 0 0 
1555 0 0 0 0 0 0 0 0 0 
1559 0 0 0 0 0 0 0 0 0 
1571 0 0 0 0 0 0 0 0 0 
1575 0 0 0 0 0 0 0 0 0 
1587 0 0 0 0 0 0 0 0 0 
1591 0 0 0 0 0 0 0 0 0 
1603 0 0 0 0 0 0 0 0 0 
1607 0 0 0 0 0 0 0 0 0 
1619 0 0 0 0 0 0 0 0 0 
1623 0 0 0 0 0 0 0 0 0 
1635 0 0 0 0 0 0 0 0 0 
1639 0 0 0 0 0 0 0 0 0 
1651 0 0 0 0 0 0 0 0 0 
1655 0 0 0 0 0 0 0 0 0 
1795 0 0 0 0 0 0 0 0 0 
1799 0 0 0 0 0 0 0 0 0 
1811 0 0 0 0 0 0 0 0 0 
1815 0 0 0 0 0 0 0 0 0 
1827 0 0 0 0 0 0 0 0 0 
1831 0 0 0 0 0 0 0 0 0 
1843 0 0 0 0 0 0 0 0 0 
1847 0 0 0 0 0 0 0 0 0 
1859 0 0 0 0 0 0 0 0 0 
1863 0 0 0 0 0 0 0 0 0 
1875 0 0 0 0 0 0 0 0 0 
1879 0 0 0 0 0 0 0 0 0 
1891 0 0 0 0 0 0 0 0 0 
1895 0 0 0 0 0 0 0 0 0 
1907 0 0 0 0 0 0 0 0 0 
1911 0 0 0 0 0 0 0 0 0 
2051 0 0 0 0 0 0 0 0 0 
2055 0 0 0 0 0 0 0 0 0 
2067 0 0 0 0 0 0 0 0 0 
2071 0 0 0 0 0 0 0 0 0 
2083 0 0 0 0 0 0 0 0 0 
2087 0 0 0 0 0 0 0 0 0 
2099 0 0 0 0 0 0 0 0 0 
2103 0 0 0 0 0 0 0 0 0 
2115 0 0 0 0 0 0 0 0 0 
2119 0 0 0 0 0 0 0 0 0 
2131 0 0 0 0 0 0 0 0 0 
2135 0 0 0 0 0 0 0 0 0 
2147 0 0 0 0 0 0 0 0 0 
2151 0 0 0 0 0 0 0 0 0 
2163 0 0 0 0 0 0 0 0 0 
2167 0 0 0 0 0 0 0 0 0 
2307 0 0 0 0 0 0 0 0 0 
2311 0 0 0 0 0 0 0 0 0 
2323 0 0 0 0 0 0 0 0 0 
2327 0 0 0 0 0 0 0 0 0 
2339 0 0 0 0 0 0 0 0 0 
2343 0 0 0 0 0 0 0 0 0 
2355 0 0 0 0 0 0 0 0 0 
2359 0 0 0 0 0 0 0 0 0 
2371 0 0 0 0 0 0 0 0 0 
2375 0 0 0 0 0 0 0 0 0 
2387 0 0 0 0 0 0 0 0 0 
2391 0 0 0 0 0 0 0 0 0 
2403 0 0 0 0 0 0 0 0 0 
2407 0 0 0 0 0 0 0 0 0 
2419 0 0 0 0 0 0 0 0 0 
2423 0 0 0 0 0 0 0 0 0 
2563 0 0 0 0 0 0 0 0 0 
2567 0 0 0 0 0 0 0 0 0 
2579 0 0 0 0 0 0 0 0 0 
2583 0 0 0 0 0 0 0 0 0 
2595 0 0 0 0 0 0 0 0 0 
2599 0 0 0 0 0 0 0 0 0 
2611 0 0 0 0 0 0 0 0 0 
2615 0 0 0 0 0 0 0 0 0 
2627 0 0 0 0 0 0 0 0 0 
2631 0 0 0 0 0 0 0 0 0 
2643 0 0 0 0 0 0 0 0 0 
2647 0 0 0 0 0 0 0 0 0 
2659 0 0 0 0 0 0 0 0 0 
2663 0 0 0 0 0 0 0 0 0 
2675 0 0 0 0 0 0 0 0 0 
2679 0 0 0 0 0 0 0 0 0 
2819 0 0 0 0 0 0 0 0 0 
2823 0 0 0 0 0 0 0 0 0 
2835 0 0 0 0 0 0 0 0 0 
2839 0 0 0 0 0 0 0 0 0 
2851 0 0 0 0 0 0 0 0 0 
2855 0 0 0 0 0 0 0 0 0 
2867 0 0 0 0 0 0 0 0 0 
2871 0 0 0 0 0 0 0 0 0 
2883 0 0 0 0 0 0 0 0 0 
2887 0 0 0 0 0 0 0 0 0 
2899 0 0 0 0 0 0 0 0 0 
2903 0 0 0 0 0 0 0 0 0 
2915 0 0 0 0 0 0 0 0 0 
2919 0 0 0 0 0 0 0 0 0 
2931 0 0 0 0 0 0 0 0 0 
2935 0 0 0 0 0 0 0 0 0 
3075 0 0 0 0 0 0 0 0 0 
3079 0 0 0 0 0 0 0 0 0 
3091 0 0 0 0 0 0 0 0 0 
3095 0 0 0 0 0 0 0 0 0 
3107 0 0 0 0 0 0 0 0 0 
3111 0 0 0 0 0 0 0 0 0 
3123 0 0 0 0 0 0 0 0 0 
3127 0 0 0 0 0 0 0 0 0 
3139 0 0 0 0 0 0 0 0 0 
3143 0 0 0 0 0 0 0 0 0 
3155 0 0 0 0 0 0 0 0 0 
3159 0 0 0 0 0 0 0 0 0 
3171 0 0 0 0 0 0 0 0 0 
3175 0 0 0 0 0 0 0 0 0 
3187 0 0 0 0 0 0 0 0 0 
3191 0 0 0 0 0 0 0 0 0 
3331 0 0 0 0 0 0 0 0 0 
3335 0 0 0 0 0 0 0 0 0 
3347 0 0 0 0 0 0 0 0 0 
3351 0 0 0 0 0 0 0 0 0 
3363 0 0 0 0 0 0 0 0 0 
3367 0 0 0 0 0 0 0 0 0 
3379 0 0 0 0 0 0 0 0 0 
3383 0 0 0 0 0 0 0 0 0 
3395 0 0 0 0 0 0 0 0 0 
3399 0 0 0 0 0 0 0 0 0 
3411 0 0 0 0 0 0 0 0 0 
3415 0 0 0 0 0 0 0 0 0 
3427 0 0 0 0 0 0 0 0 0 
3431 0 0 0 0 0 0 0 0 0 
3443 0 0 0 0 0 0 0 0 0 
3447 0 0 0 0 0 0 0 0 0 
3587 0 0 0 0 0 0 0 0 0 
3591 0 0 0 0 0 0 0 0 0 
3603 0 0 0 0 0 0 0 0 0 
3607 0 0 0 0 0 0 0 0 0 
3619 0 0 0 0 0 0 0 0 0 
3623 0 0 0 0 0 0 0 0 0 
3635 0 0 0 0 0 0 0 0 0 
3639 0 0 0 0 0 0 0 0 0 
3651 0 0 0 0 0 0 0 0 0 
3655 0 0 0 0 0 0 0 0 0 
3667 0 0 0 0 0 0 0 0 0 
3671 0 0 0 0 0 0 0 0 0 
3683 0 0 0 0 0 0 0 0 0 
3687 0 0 0 0 0 0 0 0 0 
3699 0 0 0 0 0 0 0 0 0 
3703 0 0 0 0 0 0 0 0 0 
3843 0 0 0 0 0 0 0 0 0 
3847 0 0 0 0 0 0 0 0 0 
3859 0 0 0 0 0 0 0 0 0 
3863 0 0 0 0 0 0 0 0 0 
3875 0 0 0 0 0 0 0 0 0 
3879 0 0 0 0 0 0 0 0 0 
3891 0 0 0 0 0 0 0 0 0 
3895 0 0 0 0 0 0 0 0 0 
3907 0 0 0 0 0 0 0 0 0 
3911 0 0 0 0 0 0 0 0 0 
3923 0 0 0 0 0 0 0 0 0 
3927 0 0 0 0 0 0 0 0 0 
3939 0 0 0 0 0 0 0 0 0 
3943 0 0 0 0 0 0 0 0 0 
3955 0 0 0 0 0 0 0 0 0 
3959 0 0 0 0 0 0 0 0 0 
4 0 0 0 0 0 0 0 0 0 
8 0 0 0 0 0 0 0 0 0 
20 0 0 0 0 0 0 0 0 0 
24 0 0 0 0 0 0 0 0 0 
36 0 0 0 0 0 0 0 0 0 
40 0 0 0 0 0 0 0 0 0 
52 0 0 0 0 0 0 0 0 0 
56 0 0 0 0 0 0 0 0 0 
68 0 0 0 0 0 0 0 0 0 
72 0 0 0 0 0 0 0 0 0 
84 0 0 0 0 0 0 0 0 0 
88 0 0 0 0 0 0 0 0 0 
100 0 0 0 0 0 0 0 0 0 
104 0 0 0 0 0 0 0 0 0 
116 0 0 0 0 0 0 0 0 0 
120 0 0 0 0 0 0 0 0 0 
260 0 0 0 0 0 0 0 0 0 
264 0 0 0 0 0 0 0 0 0 
276 0 0 0 0 0 0 0 0 0 
280 0 0 0 0 0 0 0 0 0 
292 0 0 0 0 0 0 0 0 0 
296 0 0 0 0 0 0 0 0 0 
308 0 0 0 0 0 0 0 0 0 
312 0 0 0 0 0 0 0 0 0 
324 0 0 0 0 0 0 0 0 0 
328 0 0 0 0 0 0 0 0 0 
340 0 0 0 0 0 0 0 0 0 
344 0 0 0 0 0 0 0 0 0 
356 0 0 0 0 0 0 0 0 0 
360 0 0 0 0 0 0 0 0 0 
372 0 0 0 0 0 0 0 0 0 
376 0 0 0 0 0 0 0 0 0 
516 0 0 0 0 0 0 0 0 0 
520 0 0 0 0 0 0 0 0 0 
532 0 0 0 0 0 0 0 0 0 
536 0 0 0 0 0 0 0 0 0 
548 0 0 0 0 0 0 0 0 0 
552 0 0 0 0 0 0 0 0 0 
564 0 0 0 0 0 0 0 0 0 
568 0 0 0 0 0 0 0 0 0 
580 0 0 0 0 0 0 0 0 0 
584 0 0 0 0 0 0 0 0 0 
596 0 0 0 0 0 0 0 0 0 
600 0 0 0 0 0 0 0 0 0 
612 0 0 0 0 0 0 0 0 0 
616 0 0 0 0 0 0 0 0 0 
628 0 0 0 0 0 0 0 0 0 
632 0 0 0 0 0 0 0 0 0 
772 0 0 0 0 0 0 0 0 0 
776 0 0 0 0 0 0 0 0 0 
788 0 0 0 0 0 0 0 0 0 
792 0 0 0 0 0 0 0 0 0 
804 0 0 0 0 0 0 0 0 0 
808 0 0 0 0 0 0 0 0 0 
820 0 0 0 0 0 0 0 0 0 
824 0 0 0 0 0 0 0 0 0 
836 0 0 0 0 0 0 0 0 0 
840 0 0 0 0 0 0 0 0 0 
852 0 0 0 0 0 0 0 0 0 
856 0 0 0 0 0 0 0 0 0 
868 0 0 0 0 0 0 0 0 0 
872 0 0 0 0 0 0 0 0 0 
884 0 0 0 0 0 0 0 0 0 
888 0 0 0 0 0 0 0 0 0 
1028 0 0 0 0 0 0 0 0 0 
1032 0 0 0 0 0 0 0 0 0 
1044 0 0 0 0 0 0 0 0 0 
1048 0 0 0 0 0 0 0 0 0 
1060 0 0 0 0 0 0 0 0 0 
1064 0 0 0 0 0 0 0 0 0 
1076 0 0 0 0 0 0 0 0 0 
1080 0 0 0 0 0 0 0 0 0 
1092 0 0 0 0 0 0 0 0 0 
1096 0 0 0 0 0 0 0 0 0 
1108 0 0 0 0 0 0 0 0 0 
1112 0 0 0 0 0 0 0 0 0 
1124 0 0 0 0 0 0 0 0 0 
1128 0 0 0 0 0 0 0 0 0 
1140 0 0 0 0 0 0 0 0 0 
1144 0 0 0 0 0 0 0 0 0 
1284 0 0 0 0 0 0 0 0 0 
1288 0 0 0 0 0 0 0 0 0 
1300 0 0 0 0 0 0 0 0 0 
1304 0 0 0 0 0 0 0 0 0 
1316 0 0 0 0 0 0 0 0 0 
1320 0 0 0 0 0 0 0 0 0 
1332 0 0 0 0 0 0 0 0 0 
1336 0 0 0 0 0 0 0 0 0 
1348 0 0 0 0 0 0 0 0 0 
1352 0 0 0 0 0 0 0 0 0 
1364 0 0 0 0 0 0 0 0 0 
1368 0 0 0 0 0 0 0 0 0 
1380 0 0 0 0 0 0 0 0 0 
1384 0 0 0 0 0 0 0 0 0 
1396 0 0 0 0 0 0 0 0 0 
1400 0 0 0 0 0 0 0 0 0 
1540 0 0 0 0 0 0 0 0 0 
1544 0 0 0 0 0 0 0 0 0 
1556 0 0 0 0 0 0 0 0 0 
1560 0 0 0 0 0 0 0 0 0 
1572 0 0 0 0 0 0 0 0 0 
1576 0 0 0 0 0 0 0 0 0 
1588 0 0 0 0 0 0 0 0 0 
1592 0 0 0 0 0 0 0 0 0 
1604 0 0 0 0 0 0 0 0 0 
1608 0 0 0 0 0 0 0 0 0 
1620 0 0 0 0 0 0 0 0 0 
1624 0 0 0 0 0 0 0 0 0 
1636 0 0 0 0 0 0 0 0 0 
1640 0 0 0 0 0 0 0 0 0 
1652 0 0 0 0 0 0 0 0 0 
1656 0 0 0 0 0 0 0 0 0 
1796 0 0 0 0 0 0 0 0 0 
1800 0 0 0 0 0 0 0 0 0 
1812 0 0 0 0 0 0 0 0 0 
1816 0 0 0 0 0 0 0 0 0 
1828 0 0 0 0 0 0 0 0 0 
1832 0 0 0 0 0 0 0 0 0 
1844 0 0 0 0 0 0 0 0 0 
1848 0 0 0 0 0 0 0 0 0 
1860 0 0 0 0 0 0 0 0 0 
1864 0 0 0 0 0 0 0 0 0 
1876 0 0 0 0 0 0 0 0 0 
1880 0 0 0 0 0 0 0 0 0 
1892 0 0 0 0 0 0 0 0 0 
1896 0 0 0 0 0 0 0 0 0 
1908 0 0 0 0 0 0 0 0 0 
1912 0 0 0 0 0 0 0 0 0 
2052 0 0 0 0 0 0 0 0 0 
2056 0 0 0 0 0 0 0 0 0 
2068 0 0 0 0 0 0 0 0 0 
2072 0 0 0 0 0 0 0 0 0 
2084 0 0 0 0 0 0 0 0 0 
2088 0 0 0 0 0 0 0 0 0 
2100 0 0 0 0 0 0 0 0 0 
2104 0 0 0 0 0 0 0 0 0 
2116 0 0 0 0 0 0 0 0 0 
2120 0 0 0 0 0 0 0 0 0 
2132 0 0 0 0 0 0 0 0 0 
2136 0 0 0 0 0 0 0 0 0 
2148 0 0 0 0 0 0 0 0 0 
2152 0 0 0 0 0 0 0 0 0 
2164 0 0 0 0 0 0 0 0 0 
2168 0 0 0 0 0 0 0 0 0 
2308 0 0 0 0 0 0 0 0 0 
2312 0 0 0 0 0 0 0 0 0 
2324 0 0 0 0 0 0 0 0 0 
2328 0 0 0 0 0 0 0 0 0 
2340 0 0 0 0 0 0 0 0 0 
2344 0 0 0 0 0 0 0 0 0 
2356 0 0 0 0 0 0 0 0 0 
2360 0 0 0 0 0 0 0 0 0 
2372 0 0 0 0 0 0 0 0 0 
2376 0 0 0 0 0 0 0 0 0 
2388 0 0 0 0 0 0 0 0 0 
2392 0 0 0 0 0 0 0 0 0 
2404 0 0 0 0 0 0 0 0 0 
2408 0 0 0 0 0 0 0 0 0 
2420 0 0 0 0 0 0 0 0 0 
2424 0 0 0 0 0 0 0 0 0 
2564 0 0 0 0 0 0 0 0 0 
2568 0 0 0 0 0 0 0 0 0 
2580 0 0 0 0 0 0 0 0 0 
2584 0 0 0 0 0 0 0 0 0 
2596 0 0 0 0 0 0 0 0 0 
2600 0 0 0 0 0 0 0 0 0 
2612 0 0 0 0 0 0 0 0 0 
2616 0 0 0 0 0 0 0 0 0 
2628 0 0 0 0 0 0 0 0 0 
2632 0 0 0 0 0 0 0 0 0 
2644 0 0 0 0 0 0 0 0 0 
2648 0 0 0 0 0 0 0 0 0 
2660 0 0 0 0 0 0 0 0 0 
2664 0 0 0 0 0 0 0 0 0 
2676 0 0 0 0 0 0 0 0 0 
2680 0 0 0 0 0 0 0 0 0 
2820 0 0 0 0 0 0 0 0 0 
2824 0 0 0 0 0 0 0 0 0 
2836 0 0 0 0 0 0 0 0 0 
2840 0 0 0 0 0 0 0 0 0 
2852 0 0 0 0 0 0 0 0 0 
2856 0 0 0 0 0 0 0 0 0 
2868 0 0 0 0 0 0 0 0 0 
2872 0 0 0 0 0 0 0 0 0 
2884 0 0 0 0 0 0 0 0 0 
2888 0 0 0 0 0 0 0 0 0 
2900 0 0 0 0 0 0 0 0 0 
2904 0 0 0 0 0 0 0 0 0 
2916 0 0 0 0 0 0 0 0 0 
2920 0 0 0 0 0 0 0 0 0 
2932 0 0 0 0 0 0 0 0 0 
2936 0 0 0 0 0 0 0 0 0 
3076 0 0 0 0 0 0 0 0 0 
3080 0 0 0 0 0 0 0 0 0 
3092 0 0 0 0 0 0 0 0 0 
3096 0 0 0 0 0 0 0 0 0 
3108 0 0 0 0 0 0 0 0 0 
3112 0 0 0 0 0 0 0 0 0 
3124 0 0 0 0 0 0 0 0 0 
3128 0 0 0 0 0 0 0 0 0 
3140 0 0 0 0 0 0 0 0 0 
3144 0 0 0 0 0 0 0 0 0 
3156 0 0 0 0 0 0 0 0 0 
3160 0 0 0 0 0 0 0 0 0 
3172 0 0 0 0 0 0 0 0 0 
3176 0 0 0 0 0 0 0 0 0 
3188 0 0 0 0 0 0 0 0 0 
3192 0 0 0 0 0 0 0 0 0 
3332 0 0 0 0 0 0 0 0 0 
3336 0 0 0 0 0 0 0 0 0 
3348 0 0 0 0 0 0 0 0 0 
3352 0 0 0 0 0 0 0 0 0 
3364 0 0 0 0 0 0 0 0 0 
3368 0 0 0 0 0 0 0 0 0 
3380 0 0 0 0 0 0 0 0 0 
3384 0 0 0 0 0 0 0 0 0 
3396 0 0 0 0 0 0 0 0 0 
3400 0 0 0 0 0 0 0 0 0 
3412 0 0 0 0 0 0 0 0 0 
3416 0 0 0 0 0 0 0 0 0 
3428 0 0 0 0 0 0 0 0 0 
3432 0 0 0 0 0 0 0 0 0 
3444 0 0 0 0 0 0 0 0 0 
3448 0 0 0 0 0 0 0 0 0 
3588 0 0 0 0 0 0 0 0 0 
3592 0 0 0 0 0 0 0 0 0 
3604 0 0 0 0 0 0 0 0 0 
3608 0 0 0 0 0 0 0 0 0 
3620 0 0 0 0 0 0 0 0 0 
3624 0 0 0 0 0 0 0 0 0 
3636 0 0 0 0 0 0 0 0 0 
3640 0 0 0 0 0 0 0 0 0 
3652 0 0 0 0 0 0 0 0 0 
3656 0 0 0 0 0 0 0 0 0 
3668 0 0 0 0 0 0 0 0 0 
3672 0 0 0 0 0 0 0 0 0 
3684 0 0 0 0 0 0 0 0 0 
3688 0 0 0 0 0 0 0 0 0 
3700 0 0 0 0 0 0 0 0 0 
3704 0 0 0 0 0 0 0 0 0 
3844 0 0 0 0 0 0 0 0 0 
3848 0 0 0 0 0 0 0 0 0 
3860 0 0 0 0 0 0 0 0 0 
3864 0 0 0 0 0 0 0 0 0 
3876 0 0 0 0 0 0 0 0 0 
3880 0 0 0 0 0 0 0 0 0 
3892 0 0 0 0 0 0 0 0 0 
3896 0 0 0 0 0 0 0 0 0 
3908 0 0 0 0 0 0 0 0 0 
3912 0 0 0 0 0 0 0 0 0 
3924 0 0 0 0 0 0 0 0 0 
3928 0 0 0 0 0 0 0 0 0 
3940 0 0 0 0 0 0 0 0 0 
3944 0 0 0 0 0 0 0 0 0 
3956 0 0 0 0 0 0 0 0 0 
3960 0 0 0 0 0 0 0 0 0 
130 0 0 0 0 0 0 0 0 0 
134 0 0 0 0 0 0 0 0 0 
146 0 0 0 0 0 0 0 0 0 
150 0 0 0 0 0 0 0 0 0 
162 0 0 0 0 0 0 0 0 0 
166 0 0 0 0 0 0 0 0 0 
178 0 0 0 0 0 0 0 0 0 
182 0 0 0 0 0 0 0 0 0 
194 0 0 0 0 0 0 0 0 0 
198 0 0 0 0 0 0 0 0 0 
210 0 0 0 0 0 0 0 0 0 
214 0 0 0 0 0 0 0 0 0 
226 0 0 0 0 0 0 0 0 0 
230 0 0 0 0 0 0 0 0 0 
242 0 0 0 0 0 0 0 0 0 
246 0 0 0 0 0 0 0 0 0 
386 0 0 0 0 0 0 0 0 0 
390 0 0 0 0 0 0 0 0 0 
402 0 0 0 0 0 0 0 0 0 
406 0 0 0 0 0 0 0 0 0 
418 0 0 0 0 0 0 0 0 0 
422 0 0 0 0 0 0 0 0 0 
434 0 0 0 0 0 0 0 0 0 
438 0 0 0 0 0 0 0 0 0 
450 0 0 0 0 0 0 0 0 0 
454 0 0 0 0 0 0 0 0 0 
466 0 0 0 0 0 0 0 0 0 
470 0 0 0 0 0 0 0 0 0 
482 0 0 0 0 0 0 0 0 0 
486 0 0 0 0 0 0 0 0 0 
498 0 0 0 0 0 0 0 0 0 
502 0 0 0 0 0 0 0 0 0 
642 0 0 0 0 0 0 0 0 0 
646 0 0 0 0 0 0 0 0 0 
658 0 0 0 0 0 0 0 0 0 
662 0 0 0 0 0 0 0 0 0 
674 0 0 0 0 0 0 0 0 0 
678 0 0 0 0 0 0 0 0 0 
690 0 0 0 0 0 0 0 0 0 
694 0 0 0 0 0 0 0 0 0 
706 0 0 0 0 0 0 0 0 0 
710 0 0 0 0 0 0 0 0 0 
722 0 0 0 0 0 0 0 0 0 
726 0 0 0 0 0 0 0 0 0 
738 0 0 0 0 0 0 0 0 0 
742 0 0 0 0 0 0 0 0 0 
754 0 0 0 0 0 0 0 0 0 
758 0 0 0 0 0 0 0 0 0 
898 0 0 0 0 0 0 0 0 0 
902 0 0 0 0 0 0 0 0 0 
914 0 0 0 0 0 0 0 0 0 
918 0 0 0 0 0 0 0 0 0 
930 0 0 0 0 0 0 0 0 0 
934 0 0 0 0 0 0 0 0 0 
946 0 0 0 0 0 0 0 0 0 
950 0 0 0 0 0 0 0 0 0 
962 0 0 0 0 0 0 0 0 0 
966 0 0 0 0 0 0 0 0 0 
978 0 0 0 0 0 0 0 0 0 
982 0 0 0 0 0 0 0 0 0 
994 0 0 0 0 0 0 0 0 0 
998 0 0 0 0 0 0 0 0 0 
1010 0 0 0 0 0 0 0 0 0 
1014 0 0 0 0 0 0 0 0 0 
1154 0 0 0 0 0 0 0 0 0 
1158 0 0 0 0 0 0 0 0 0 
1170 0 0 0 0 0 0 0 0 0 
1174 0 0 0 0 0 0 0 0 0 
1186 0 0 0 0 0 0 0 0 0 
1190 0 0 0 0 0 0 0 0 0 
1202 0 0 0 0 0 0 0 0 0 
1206 0 0 0 0 0 0 0 0 0 
1218 0 0 0 0 0 0 0 0 0 
1222 0 0 0 0 0 0 0 0 0 
1234 0 0 0 0 0 0 0 0 0 
1238 0 0 0 0 0 0 0 0 0 
1250 0 0 0 0 0 0 0 0 0 
1254 0 0 0 0 0 0 0 0 0 
1266 0 0 0 0 0 0 0 0 0 
1270 0 0 0 0 0 0 0 0 0 
1410 0 0 0 0 0 0 0 0 0 
1414 0 0 0 0 0 0 0 0 0 
1426 0 0 0 0 0 0 0 0 0 
1430 0 0 0 0 0 0 0 0 0 
1442 0 0 0 0 0 0 0 0 0 
1446 0 0 0 0 0 0 0 0 0 
1458 0 0 0 0 0 0 0 0 0 
1462 0 0 0 0 0 0 0 0 0 
1474 0 0 0 0 0 0 0 0 0 
1478 0 0 0 0 0 0 0 0 0 
1490 0 0 0 0 0 0 0 0 0 
1494 0 0 0 0 0 0 0 0 0 
1506 0 0 0 0 0 0 0 0 0 
1510 0 0 0 0 0 0 0 0 0 
1522 0 0 0 0 0 0 0 0 0 
1526 0 0 0 0 0 0 0 0 0 
1666 0 0 0 0 0 0 0 0 0 
1670 0 0 0 0 0 0 0 0 0 
1682 0 0 0 0 0 0 0 0 0 
1686 0 0 0 0 0 0 0 0 0 
1698 0 0 0 0 0 0 0 0 0 
1702 0 0 0 0 0 0 0 0 0 
1714 0 0 0 0 0 0 0 0 0 
1718 0 0 0 0 0 0 0 0 0 
1730 0 0 0 0 0 0 0 0 0 
1734 0 0 0 0 0 0 0 0 0 
1746 0 0 0 0 0 0 0 0 0 
1750 0 0 0 0 0 0 0 0 0 
1762 0 0 0 0 0 0 0 0 0 
1766 0 0 0 0 0 0 0 0 0 
1778 0 0 0 0 0 0 0 0 0 
1782 0 0 0 0 0 0 0 0 0 
1922 0 0 0 0 0 0 0 0 0 
1926 0 0 0 0 0 0 0 0 0 
1938 0 0 0 0 0 0 0 0 0 
1942 0 0 0 0 0 0 0 0 0 
1954 0 0 0 0 0 0 0 0 0 
1958 0 0 0 0 0 0 0 0 0 
1970 0 0 0 0 0 0 0 0 0 
1974 0 0 0 0 0 0 0 0 0 
1986 0 0 0 0 0 0 0 0 0 
1990 0 0 0 0 0 0 0 0 0 
2002 0 0 0 0 0 0 0 0 0 
2006 0 0 0 0 0 0 0 0 0 
2018 0 0 0 0 0 0 0 0 0 
2022 0 0 0 0 0 0 0 0 0 
2034 0 0 0 0 0 0 0 0 0 
2038 0 0 0 0 0 0 0 0 0 
2178 0 0 0 0 0 0 0 0 0 
2182 0 0 0 0 0 0 0 0 0 
2194 0 0 0 0 0 0 0 0 0 
2198 0 0 0 0 0 0 0 0 0 
2210 0 0 0 0 0 0 0 0 0 
2214 0 0 0 0 0 0 0 0 0 
2226 0 0 0 0 0 0 0 0 0 
2230 0 0 0 0 0 0 0 0 0 
2242 0 0 0 0 0 0 0 0 0 
2246 0 0 0 0 0 0 0 0 0 
2258 0 0 0 0 0 0 0 0 0 
2262 0 0 0 0 0 0 0 0 0 
2274 0 0 0 0 0 0 0 0 0 
2278 0 0 0 0 0 0 0 0 0 
2290 0 0 0 0 0 0 0 0 0 
2294 0 0 0 0 0 0 0 0 0 
2434 0 0 0 0 0 0 0 0 0 
2438 0 0 0 0 0 0 0 0 0 
2450 0 0 0 0 0 0 0 0 0 
2454 0 0 0 0 0 0 0 0 0 
2466 0 0 0 0 0 0 0 0 0 
2470 0 0 0 0 0 0 0 0 0 
2482 0 0 0 0 0 0 0 0 0 
2486 0 0 0 0 0 0 0 0 0 
2498 0 0 0 0 0 0 0 0 0 
2502 0 0 0 0 0 0 0 0 0 
2514 0 0 0 0 0 0 0 0 0 
2518 0 0 0 0 0 0 0 0 0 
2530 0 0 0 0 0 0 0 0 0 
2534 0 0 0 0 0 0 0 0 0 
2546 0 0 0 0 0 0 0 0 0 
2550 0 0 0 0 0 0 0 0 0 
2690 0 0 0 0 0 0 0 0 0 
2694 0 0 0 0 0 0 0 0 0 
2706 0 0 0 0 0 0 0 0 0 
2710 0 0 0 0 0 0 0 0 0 
2722 0 0 0 0 0 0 0 0 0 
2726 0 0 0 0 0 0 0 0 0 
2738 0 0 0 0 0 0 0 0 0 
2742 0 0 0 0 0 0 0 0 0 
2754 0 0 0 0 0 0 0 0 0 
2758 0 0 0 0 0 0 0 0 0 
2770 0 0 0 0 0 0 0 0 0 
2774 0 0 0 0 0 0 0 0 0 
2786 0 0 0 0 0 0 0 0 0 
2790 0 0 0 0 0 0 0 0 0 
2802 0 0 0 0 0 0 0 0 0 
2806 0 0 0 0 0 0 0 0 0 
2946 0 0 0 0 0 0 0 0 0 
2950 0 0 0 0 0 0 0 0 0 
2962 0 0 0 0 0 0 0 0 0 
2966 0 0 0 0 0 0 0 0 0 
2978 0 0 0 0 0 0 0 0 0 
2982 0 0 0 0 0 0 0 0 0 
2994 0 0 0 0 0 0 0 0 0 
2998 0 0 0 0 0 0 0 0 0 
3010 0 0 0 0 0 0 0 0 0 
3014 0 0 0 0 0 0 0 0 0 
3026 0 0 0 0 0 0 0 0 0 
3030 0 0 0 0 0 0 0 0 0 
3042 0 0 0 0 0 0 0 0 0 
3046 0 0 0 0 0 0 0 0 0 
3058 0 0 0 0 0 0 0 0 0 
3062 0 0 0 0 0 0 0 0 0 
3202 0 0 0 0 0 0 0 0 0 
3206 0 0 0 0 0 0 0 0 0 
3218 0 0 0 0 0 0 0 0 0 
3222 0 0 0 0 0 0 0 0 0 
3234 0 0 0 0 0 0 0 0 0 
3238 0 0 0 0 0 0 0 0 0 
3250 0 0 0 0 0 0 0 0 0 
3254 0 0 0 0 0 0 0 0 0 
3266 0 0 0 0 0 0 0 0 0 
3270 0 0 0 0 0 0 0 0 0 
3282 0 0 0 0 0 0 0 0 0 
3286 0 0 0 0 0 0 0 0 0 
3298 0 0 0 0 0 0 0 0 0 
3302 0 0 0 0 0 0 0 0 0 
3314 0 0 0 0 0 0 0 0 0 
3318 0 0 0 0 0 0 0 0 0 
3458 0 0 0 0 0 0 0 0 0 
3462 0 0 0 0 0 0 0 0 0 
3474 0 0 0 0 0 0 0 0 0 
3478 0 0 0 0 0 0 0 0 0 
3490 0 0 0 0 0 0 0 0 0 
3494 0 0 0 0 0 0 0 0 0 
3506 0 0 0 0 0 0 0 0 0 
3510 0 0 0 0 0 0 0 0 0 
3522 0 0 0 0 0 0 0 0 0 
3526 0 0 0 0 0 0 0 0 0 
3538 0 0 0 0 0 0 0 0 0 
3542 0 0 0 0 0 0 0 0 0 
3554 0 0 0 0 0 0 0 0 0 
3558 0 0 0 0 0 0 0 0 0 
3570 0 0 0 0 0 0 0 0 0 
3574 0 0 0 0 0 0 0 0 0 
3714 0 0 0 0 0 0 0 0 0 
3718 0 0 0 0 0 0 0 0 0 
3730 0 0 0 0 0 0 0 0 0 
3734 0 0 0 0 0 0 0 0 0 
3746 0 0 0 0 0 0 0 0 0 
3750 0 0 0 0 0 0 0 0 0 
3762 0 0 0 0 0 0 0 0 0 
3766 0 0 0 0 0 0 0 0 0 
3778 0 0 0 0 0 0 0 0 0 
3782 0 0 0 0 0 0 0 0 0 