ITEM: TIMESTEP
0
ITEM: NUMBER OF CELLS
256
ITEM: BOX BOUNDS pp pp pp
0 0.00016
0 0.00016
-0.5 0.5
ITEM: CELLS id c_2[1] c_2[2] c_2[3] c_2[4] c_2[5] c_2[6] f_1[1] f_1[2] f_1[3] 
1 0 0 0 0 0 0 0 0 0 
2 0 0 0 0 0 0 0 0 0 
3 0 0 0 0 0 0 0 0 0 
4 0 0 0 0 0 0 0 0 0 
5 0 0 0 0 0 0 0 0 0 
6 0 0 0 0 0 0 0 0 0 
7 0 0 0 0 0 0 0 0 0 
8 0 0 0 0 0 0 0 0 0 
9 0 0 0 0 0 0 0 0 0 
10 0 0 0 0 0 0 0 0 0 
11 0 0 0 0 0 0 0 0 0 
12 0 0 0 0 0 0 0 0 0 
13 0 0 0 0 0 0 0 0 0 
14 0 0 0 0 0 0 0 0 0 
15 0 0 0 0 0 0 0 0 0 
16 0 0 0 0 0 0 0 0 0 
17 0 0 0 0 0 0 0 0 0 
18 0 0 0 0 0 0 0 0 0 
19 0 0 0 0 0 0 0 0 0 
20 0 0 0 0 0 0 0 0 0 
21 0 0 0 0 0 0 0 0 0 
22 0 0 0 0 0 0 0 0 0 
23 0 0 0 0 0 0 0 0 0 
24 0 0 0 0 0 0 0 0 0 
25 0 0 0 0 0 0 0 0 0 
26 0 0 0 0 0 0 0 0 0 
27 0 0 0 0 0 0 0 0 0 
28 0 0 0 0 0 0 0 0 0 
29 0 0 0 0 0 0 0 0 0 
30 0 0 0 0 0 0 0 0 0 
31 0 0 0 0 0 0 0 0 0 
32 0 0 0 0 0 0 0 0 0 
33 0 0 0 0 0 0 0 0 0 
34 0 0 0 0 0 0 0 0 0 
35 0 0 0 0 0 0 0 0 0 
36 0 0 0 0 0 0 0 0 0 
37 0 0 0 0 0 0 0 0 0 
38 0 0 0 0 0 0 0 0 0 
39 0 0 0 0 0 0 0 0 0 
40 0 0 0 0 0 0 0 0 0 
41 0 0 0 0 0 0 0 0 0 
42 0 0 0 0 0 0 0 0 0 
43 0 0 0 0 0 0 0 0 0 
44 0 0 0 0 0 0 0 0 0 
45 0 0 0 0 0 0 0 0 0 
46 0 0 0 0 0 0 0 0 0 
47 0 0 0 0 0 0 0 0 0 
48 0 0 0 0 0 0 0 0 0 
49 0 0 0 0 0 0 0 0 0 
50 0 0 0 0 0 0 0 0 0 
51 0 0 0 0 0 0 0 0 0 
52 0 0 0 0 0 0 0 0 0 
53 0 0 0 0 0 0 0 0 0 
54 0 0 0 0 0 0 0 0 0 
55 0 0 0 0 0 0 0 0 0 
56 0 0 0 0 0 0 0 0 0 
57 0 0 0 0 0 0 0 0 0 
58 0 0 0 0 0 0 0 0 0 
59 0 0 0 0 0 0 0 0 0 
60 0 0 0 0 0 0 0 0 0 
61 0 0 0 0 0 0 0 0 0 
62 0 0 0 0 0 0 0 0 0 
63 0 0 0 0 0 0 0 0 0 
64 0 0 0 0 0 0 0 0 0 
65 0 0 0 0 0 0 0 0 0 
66 0 0 0 0 0 0 0 0 0 
67 0 0 0 0 0 0 0 0 0 
68 0 0 0 0 0 0 0 0 0 
69 0 0 0 0 0 0 0 0 0 
70 0 0 0 0 0 0 0 0 0 
71 0 0 0 0 0 0 0 0 0 
72 0 0 0 0 0 0 0 0 0 
73 0 0 0 0 0 0 0 0 0 
74 0 0 0 0 0 0 0 0 0 
75 0 0 0 0 0 0 0 0 0 
76 0 0 0 0 0 0 0 0 0 
77 0 0 0 0 0 0 0 0 0 
78 0 0 0 0 0 0 0 0 0 
79 0 0 0 0 0 0 0 0 0 
80 0 0 0 0 0 0 0 0 0 
81 0 0 0 0 0 0 0 0 0 
82 0 0 0 0 0 0 0 0 0 
83 0 0 0 0 0 0 0 0 0 
84 0 0 0 0 0 0 0 0 0 
85 0 0 0 0 0 0 0 0 0 
86 0 0 0 0 0 0 0 0 0 
87 0 0 0 0 0 0 0 0 0 
88 0 0 0 0 0 0 0 0 0 
89 0 0 0 0 0 0 0 0 0 
90 0 0 0 0 0 0 0 0 0 
91 0 0 0 0 0 0 0 0 0 
92 0 0 0 0 0 0 0 0 0 
93 0 0 0 0 0 0 0 0 0 
94 0 0 0 0 0 0 0 0 0 
95 0 0 0 0 0 0 0 0 0 
96 0 0 0 0 0 0 0 0 0 
97 0 0 0 0 0 0 0 0 0 
98 0 0 0 0 0 0 0 0 0 
99 0 0 0 0 0 0 0 0 0 
100 0 0 0 0 0 0 0 0 0 
101 0 0 0 0 0 0 0 0 0 
102 0 0 0 0 0 0 0 0 0 
103 0 0 0 0 0 0 0 0 0 
104 0 0 0 0 0 0 0 0 0 
105 0 0 0 0 0 0 0 0 0 
106 0 0 0 0 0 0 0 0 0 
107 0 0 0 0 0 0 0 0 0 
108 0 0 0 0 0 0 0 0 0 
109 0 0 0 0 0 0 0 0 0 
110 0 0 0 0 0 0 0 0 0 
111 0 0 0 0 0 0 0 0 0 
112 0 0 0 0 0 0 0 0 0 
113 0 0 0 0 0 0 0 0 0 
114 0 0 0 0 0 0 0 0 0 
115 0 0 0 0 0 0 0 0 0 
116 0 0 0 0 0 0 0 0 0 
117 0 0 0 0 0 0 0 0 0 
118 0 0 0 0 0 0 0 0 0 
119 0 0 0 0 0 0 0 0 0 
120 0 0 0 0 0 0 0 0 0 
121 0 0 0 0 0 0 0 0 0 
122 0 0 0 0 0 0 0 0 0 
123 0 0 0 0 0 0 0 0 0 
124 0 0 0 0 0 0 0 0 0 
125 0 0 0 0 0 0 0 0 0 
126 0 0 0 0 0 0 0 0 0 
127 0 0 0 0 0 0 0 0 0 
128 0 0 0 0 0 0 0 0 0 
129 0 0 0 0 0 0 0 0 0 
130 0 0 0 0 0 0 0 0 0 
131 0 0 0 0 0 0 0 0 0 
132 0 0 0 0 0 0 0 0 0 
133 0 0 0 0 0 0 0 0 0 
134 0 0 0 0 0 0 0 0 0 
135 0 0 0 0 0 0 0 0 0 
136 0 0 0 0 0 0 0 0 0 
137 0 0 0 0 0 0 0 0 0 
138 0 0 0 0 0 0 0 0 0 
139 0 0 0 0 0 0 0 0 0 
140 0 0 0 0 0 0 0 0 0 
141 0 0 0 0 0 0 0 0 0 
142 0 0 0 0 0 0 0 0 0 
143 0 0 0 0 0 0 0 0 0 
144 0 0 0 0 0 0 0 0 0 
145 0 0 0 0 0 0 0 0 0 
146 0 0 0 0 0 0 0 0 0 
147 0 0 0 0 0 0 0 0 0 
148 0 0 0 0 0 0 0 0 0 
149 0 0 0 0 0 0 0 0 0 
150 0 0 0 0 0 0 0 0 0 
151 0 0 0 0 0 0 0 0 0 
152 0 0 0 0 0 0 0 0 0 
153 0 0 0 0 0 0 0 0 0 
154 0 0 0 0 0 0 0 0 0 
155 0 0 0 0 0 0 0 0 0 
156 0 0 0 0 0 0 0 0 0 
157 0 0 0 0 0 0 0 0 0 
158 0 0 0 0 0 0 0 0 0 
159 0 0 0 0 0 0 0 0 0 
160 0 0 0 0 0 0 0 0 0 
161 0 0 0 0 0 0 0 0 0 
162 0 0 0 0 0 0 0 0 0 
163 0 0 0 0 0 0 0 0 0 
164 0 0 0 0 0 0 0 0 0 
165 0 0 0 0 0 0 0 0 0 
166 0 0 0 0 0 0 0 0 0 
167 0 0 0 0 0 0 0 0 0 
168 0 0 0 0 0 0 0 0 0 
169 0 0 0 0 0 0 0 0 0 
170 0 0 0 0 0 0 0 0 0 
171 0 0 0 0 0 0 0 0 0 
172 0 0 0 0 0 0 0 0 0 
173 0 0 0 0 0 0 0 0 0 
174 0 0 0 0 0 0 0 0 0 
175 0 0 0 0 0 0 0 0 0 
176 0 0 0 0 0 0 0 0 0 
177 0 0 0 0 0 0 0 0 0 
178 0 0 0 0 0 0 0 0 0 
179 0 0 0 0 0 0 0 0 0 
180 0 0 0 0 0 0 0 0 0 
181 0 0 0 0 0 0 0 0 0 
182 0 0 0 0 0 0 0 0 0 
183 0 0 0 0 0 0 0 0 0 
184 0 0 0 0 0 0 0 0 0 
185 0 0 0 0 0 0 0 0 0 
186 0 0 0 0 0 0 0 0 0 
187 0 0 0 0 0 0 0 0 0 
188 0 0 0 0 0 0 0 0 0 
189 0 0 0 0 0 0 0 0 0 
190 0 0 0 0 0 0 0 0 0 
191 0 0 0 0 0 0 0 0 0 
192 0 0 0 0 0 0 0 0 0 
193 0 0 0 0 0 0 0 0 0 
194 0 0 0 0 0 0 0 0 0 
195 0 0 0 0 0 0 0 0 0 
196 0 0 0 0 0 0 0 0 0 
197 0 0 0 0 0 0 0 0 0 
198 0 0 0 0 0 0 0 0 0 
199 0 0 0 0 0 0 0 0 0 
200 0 0 0 0 0 0 0 0 0 
201 0 0 0 0 0 0 0 0 0 
202 0 0 0 0 0 0 0 0 0 
203 0 0 0 0 0 0 0 0 0 
204 0 0 0 0 0 0 0 0 0 
205 0 0 0 0 0 0 0 0 0 
206 0 0 0 0 0 0 0 0 0 
207 0 0 0 0 0 0 0 0 0 
208 0 0 0 0 0 0 0 0 0 
209 0 0 0 0 0 0 0 0 0 
210 0 0 0 0 0 0 0 0 0 
211 0 0 0 0 0 0 0 0 0 
212 0 0 0 0 0 0 0 0 0 
213 0 0 0 0 0 0 0 0 0 
214 0 0 0 0 0 0 0 0 0 
215 0 0 0 0 0 0 0 0 0 
216 0 0 0 0 0 0 0 0 0 
217 0 0 0 0 0 0 0 0 0 
218 0 0 0 0 0 0 0 0 0 
219 0 0 0 0 0 0 0 0 0 
220 0 0 0 0 0 0 0 0 0 
221 0 0 0 0 0 0 0 0 0 
222 0 0 0 0 0 0 0 0 0 
223 0 0 0 0 0 0 0 0 0 
224 0 0 0 0 0 0 0 0 0 
225 0 0 0 0 0 0 0 0 0 
226 0 0 0 0 0 0 0 0 0 
227 0 0 0 0 0 0 0 0 0 
228 0 0 0 0 0 0 0 0 0 
229 0 0 0 0 0 0 0 0 0 
230 0 0 0 0 0 0 0 0 0 
231 0 0 0 0 0 0 0 0 0 
232 0 0 0 0 0 0 0 0 0 
233 0 0 0 0 0 0 0 0 0 
234 0 0 0 0 0 0 0 0 0 
235 0 0 0 0 0 0 0 0 0 
236 0 0 0 0 0 0 0 0 0 
237 0 0 0 0 0 0 0 0 0 
238 0 0 0 0 0 0 0 0 0 
239 0 0 0 0 0 0 0 0 0 
240 0 0 0 0 0 0 0 0 0 
241 0 0 0 0 0 0 0 0 0 
242 0 0 0 0 0 0 0 0 0 
243 0 0 0 0 0 0 0 0 0 
244 0 0 0 0 0 0 0 0 0 
245 0 0 0 0 0 0 0 0 0 
246 0 0 0 0 0 0 0 0 0 
247 0 0 0 0 0 0 0 0 0 
248 0 0 0 0 0 0 0 0 0 
249 0 0 0 0 0 0 0 0 0 
250 0 0 0 0 0 0 0 0 0 
251 0 0 0 0 0 0 0 0 0 
252 0 0 0 0 0 0 0 0 0 
253 0 0 0 0 0 0 0 0 0 
254 0 0 0 0 0 0 0 0 0 
255 0 0 0 0 0 0 0 0 0 
256 0 0 0 0 0 0 0 0 0 
ITEM: TIMESTEP
1000
ITEM: NUMBER OF CELLS
256
ITEM: BOX BOUNDS pp pp pp
0 0.00016
0 0.00016
-0.5 0.5
ITEM: CELLS id c_2[1] c_2[2] c_2[3] c_2[4] c_2[5] c_2[6] f_1[1] f_1[2] f_1[3] 
1 2644.71 0 1711.35 0 -1440.6 0 16.1298 1.27104 -19.1111 
2 -25.5859 0.457199 13.3197 82.0287 -224.792 50.9372 7.31931 -2.68568 0.0220157 
3 -57.7973 9.08116 -106.162 55.0383 -7.53081 -267.516 11.8088 19.0423 -17.9729 
4 73.3568 20.2341 74.3099 35.3839 -57.4431 -10.5913 7.48013 6.37064 -7.55182 
5 -31.8257 46.4601 -149.365 -176.936 132.347 41.2789 13.2707 16.2058 -9.24567 
6 71.8486 42.435 -73.229 -66.4801 -67.9913 32.9304 2.15035 12.2315 2.75415 
7 -53.7151 30.3262 96.416 -19.2982 47.3781 -40.3565 22.0336 -2.07956 3.46886 
8 -13.3334 -171.31 -15.8756 56.4825 4.77043 -22.1797 3.42194 7.46911 -4.49698 
9 -140.73 0 -15.3528 0 -46.1449 0 5.91783 -2.34753 13.2764 
10 -13.3334 171.31 -15.8756 -56.4825 4.77043 22.1797 14.316 4.65088 -7.1041 
11 -53.7151 -30.3262 96.416 19.2982 47.3781 40.3565 10.778 3.39857 -7.60024 
12 71.8486 -42.435 -73.229 66.4801 -67.9913 -32.9304 14.7186 20.6786 -3.72718 
13 -31.8257 -46.4601 -149.365 176.936 132.347 -41.2789 13.7909 14.6829 -10.0689 
14 73.3568 -20.2341 74.3099 -35.3839 -57.4431 10.5913 9.28382 5.60367 -2.23233 
15 -57.7973 -9.08116 -106.162 -55.0383 -7.53081 267.516 0.685171 -1.21138 -8.87761 
16 -25.5859 -0.457199 13.3197 -82.0287 -224.792 -50.9372 -5.22577 5.17086 1.77244 
17 -219.801 247.344 0.920747 -5.3699 -111.988 170.406 13.1022 15.6854 -17.4881 
18 -12.7862 86.395 27.0597 -113.71 18.595 110.309 19.8344 2.22824 -3.72333 
19 11.4942 37.9184 -11.3886 -16.5269 143.643 -17.3617 -1.086 2.07644 -9.04827 
20 17.0563 -0.56222 104.42 -86.9763 -13.9231 -14.292 5.58883 13.4676 -16.0641 
21 72.2638 -30.0664 2.66938 -59.9619 136.788 36.9757 7.24474 9.45569 13.734 
22 141.03 75.341 -35.1107 33.7038 12.987 -24.8603 20.1475 3.12007 -6.99864 
23 -34.5047 130.768 63.0191 -26.2908 -124.355 87.3924 3.2104 2.12897 -20.6721 
24 148.535 101.868 71.0837 -62.7532 -117.113 68.9159 -1.68927 -0.0628048 -14.9249 
25 2.85781 -107.522 -8.30738 72.459 -13.1333 11.9753 12.2684 4.21997 -7.99249 
26 93.3082 -23.0029 -34.8084 56.2365 -96.9359 -24.3226 9.2319 6.90794 -11.4531 
27 132.281 -26.9562 -50.7301 -112.372 -73.8465 -17.0292 -2.55773 -2.17138 -19.3696 
28 -52.6105 36.2188 -62.4294 4.30895 -48.6304 -34.0101 2.52588 12.3602 -21.8048 
29 93.2011 12.3686 79.4652 37.8922 0.0731094 9.01437 22.0953 6.08313 1.84677 
30 16.44 -88.8793 -153.765 -108.993 -81.4081 145.135 1.20916 1.56309 -9.04595 
31 3.1294 -20.9723 -102.883 -120.163 88.7019 141.834 4.38703 22.7394 2.37897 
32 95.7114 23.9524 129.153 40.3045 165.097 -10.0443 9.47201 4.25892 1.57359 
33 95.0848 -165.622 17.7494 11.0401 70.2703 -80.5169 17.7524 4.50155 2.71497 
34 58.6521 -56.8223 -24.6077 40.8243 69.6319 126.916 9.32357 10.5389 -5.25234 
35 -50.4803 -28.4776 7.65854 42.9027 -65.5222 117.479 16.6145 16.4279 -11.9703 
36 27.2678 50.6895 -35.8921 -50.6416 -47.7954 -10.9766 19.6068 14.4214 -2.20049 
37 -59.122 114.052 95.3855 92.5933 -4.68584 27.7132 0.859013 6.00971 -3.06875 
38 106.13 -122.755 71.6766 16.9366 -76.2558 -18.2174 8.73098 10.3294 -4.94002 
39 46.2902 115.686 -24.0356 89.9532 -87.8351 -125.364 21.8512 13.9679 0.358766 
40 -21.4936 26.3853 33.6201 5.42391 -161.566 -26.6705 7.92207 -1.5986 -3.59338 
41 4.8507 -43.131 -38.7334 17.092 129.386 -11.1256 13.5127 9.93893 -8.16858 
42 -136.239 -33.308 139.332 59.0864 -131.856 51.0892 20.3577 0.487643 -10.2235 
43 55.5176 -98.1148 -5.87648 95.7304 -85.9826 -49.0872 -2.2463 14.4837 -18.7214 
44 -101.053 -64.0782 -52.2586 8.78771 -124.872 -37.797 17.2383 7.64999 -11.6687 
45 -13.742 11.8073 -118.671 -25.3874 20.4507 -96.2073 11.1682 6.45922 -7.88247 
46 -28.077 -93.2308 -0.0162417 -46.5533 10.7939 -15.2591 14.2255 4.0115 -10.4373 
47 50.4918 7.46024 41.8799 -16.7991 -135.38 22.3964 10.3437 3.81184 -4.22878 
48 11.9042 -17.9612 -7.7491 -20.2249 -128.213 -19.8313 16.9977 7.09469 -0.338723 
49 -49.1952 99.9096 34.2643 7.9488 -104.85 -112.642 8.30418 -5.42076 6.80839 
50 -92.5064 -73.9251 15.713 72.5266 -150.242 -20.2361 -2.67478 -15.925 -2.48846 
51 58.3435 1.31445 -44.5821 -63.7784 6.18754 -23.8341 7.51669 8.16083 -10.9289 
52 22.4564 24.3946 102.405 96.7638 -24.4207 35.2557 13.456 11.6566 -8.28497 
53 -18.0055 106.222 20.6547 -98.2639 -48.8073 70.9252 17.6522 2.39526 -21.3478 
54 266.561 -58.4509 -58.0195 -36.9376 -2.49363 -16.7743 3.96048 -4.80269 0.698794 
55 -142.391 -86.4281 -135.213 -105.893 -81.0737 -1.20674 7.78944 9.27518 -0.245164 
56 -47.7114 -31.2025 129.943 85.5415 41.4246 17.2119 7.77369 10.0603 12.2811 
57 28.1868 222.625 -27.0248 38.9235 -23.009 -104.876 1.82936 4.15225 6.10541 
58 56.9904 -85.4561 97.512 -0.575125 -6.75795 133.674 14.9853 4.40412 6.92695 
59 -58.7664 -66.087 24.5808 18.7504 8.99275 -13.7007 8.69613 -1.94326 -8.65278 
60 -227.995 -27.7549 -159.061 -23.3185 -79.8393 -121.842 14.2353 8.6884 -6.62057 
61 119.303 22.9116 41.3582 93.2493 -68.257 48.9481 6.58038 9.83915 -6.93057 
62 20.1787 124.525 9.40422 48.3151 -10.9192 20.7346 11.5763 9.40104 -12.2439 
63 -87.5208 -55.7522 -93.9428 -68.0687 -73.9833 -140.253 8.94638 10.1053 -1.09474 
64 -122.3 -171.252 -35.9586 -6.78713 45.0011 195.34 0.32014 12.4377 2.17595 
65 -90.8288 -9.86016 7.96369 -17.3212 8.59436 -15.8411 9.37869 11.7487 -2.7778 
66 -95.9299 188.918 -49.0089 30.9353 55.5097 119.102 12.5926 10.794 -12.4204 
67 -86.1952 137.582 -10.5205 34.3998 -15.7984 -204.197 20.7962 7.50145 -8.73499 
68 -44.2775 88.3716 52.4521 -38.206 49.0289 -38.6547 10.5619 17.1147 -4.51388 
69 -102.414 193.786 18.8962 90.7358 -100.866 147.048 11.887 9.39385 -6.11394 
70 -122.053 -80.6042 -128.906 20.9477 -111.333 2.11263 14.4412 12.1393 0.93879 
71 -68.1741 75.4615 -62.3142 -81.1617 51.9285 -93.2029 3.41693 1.74861 -4.23029 
72 -62.1072 -108.322 -28.7195 -41.2386 -75.0132 -120.467 21.5556 1.77059 -3.5422 
73 -73.4866 47.3821 -116.895 123.438 -47.5455 60.5782 4.43009 10.9284 -2.55938 
74 61.8649 76.4235 -6.81519 22.8693 -68.3358 22.0226 12.0534 8.83701 -12.7362 
75 -1.96556 3.84304 20.6092 163.002 46.182 3.92392 5.49417 14.4516 -8.42302 
76 -7.92456 -3.04597 119.015 2.83461 12.6824 41.1671 20.6281 -0.549832 -7.25805 
77 9.58728 67.1151 121.663 58.2483 54.2694 49.5176 -4.80057 -1.58167 -13.5893 
78 183.752 62.4647 -83.0737 86.3502 -115.958 -103.855 23.7043 9.14659 -5.23245 
79 -12.3288 -12.6592 1.91596 -110.262 -68.2201 -62.1254 6.31364 2.22734 -6.57507 
80 -29.5621 123.797 -3.73734 55.0812 -114.447 -3.99238 19.3609 10.795 7.48931 
81 27.6665 -50.3141 -77.7956 -23.8018 100.747 -47.5374 15.5382 -7.23988 2.58877 
82 -70.0974 47.0434 58.9039 24.4107 -153.052 78.7748 27.0051 2.24483 -15.7545 
83 -42.2016 57.2652 -14.9605 -86.7041 143.883 35.9922 7.5336 8.96144 -10.6435 
84 42.0827 44.2422 19.0711 -73.8655 165.925 -59.922 19.6834 -1.89623 -1.53789 
85 49.645 -35.5129 -44.5183 -22.5386 102.727 45.9635 12.4794 17.6263 -1.05338 
86 9.41238 31.3182 -1.38641 20.9908 -83.879 -110.715 7.81777 11.4254 -5.72296 
87 131.582 -1.72825 -101.721 123.286 79.2242 42.3556 7.04647 9.11511 -1.12416 
88 77.6788 -74.2673 132.804 -97.7126 -131.239 -35.0387 9.50384 7.31633 -0.464184 
89 223.748 -76.2081 41.6027 129.319 -144.997 25.5945 2.07967 14.121 2.73518 
90 139.802 21.0783 110.64 72.8641 72.7729 -134.18 19.3887 -10.9158 -3.54201 
91 -163.314 69.0714 139.284 65.4501 60.0109 63.7812 8.09388 16.0999 -1.07375 
92 10.8252 -102.731 49.2139 106.002 -82.2961 -7.84546 8.16466 6.21787 -3.83274 
93 45.2124 47.1312 161.261 129.393 -86.409 22.197 0.210557 8.52804 -7.81197 
94 -14.7273 -84.5991 25.4056 64.998 -50.2472 71.8903 6.79166 6.49016 4.14949 
95 -109.192 98.9682 -62.9157 81.4339 57.4239 25.7939 4.25209 4.85113 4.65245 
96 -152.426 75.6595 -40.6685 81.2041 -29.3002 87.3704 11.2895 4.80235 -19.707 
97 -48.2834 4.9098 -116.973 38.1797 77.1527 -49.5045 17.2853 -0.37076 -7.28763 
98 13.4242 59.8592 -58.1985 8.71711 101.502 -14.5134 4.33806 1.20999 -5.50182 
99 20.4629 -64.7905 -197.492 13.0294 61.6375 -50.6302 11.0921 11.9951 -8.55877 
100 36.473 2.39322 -50.0126 26.2644 -47.1305 86.1856 12.9875 12.8649 -11.9991 
101 -150.013 109.881 16.4888 -57.9697 74.1805 -33.2748 24.4049 12.1046 -4.03021 
102 106.228 25.5941 60.5812 30.2178 58.0797 -14.7777 16.1355 14.8227 -1.28661 
103 132.293 33.9733 -185.488 -131.771 86.1156 -103.789 32.8721 7.22113 -10.054 
104 -30.0683 -123.388 -21.5219 89.0112 -47.5378 93.6042 16.9524 13.11 1.59774 
105 108.473 185.104 37.969 -152.204 -118.528 -60.8026 14.1863 -15.9924 -12.766 
106 53.6284 -89.5018 92.2227 160.855 -80.1391 -34.6495 10.5859 15.8872 1.74493 
107 13.6125 -51.5444 -10.0115 -49.3776 52.359 -251.606 21.1439 1.59112 -9.45742 
108 110.86 71.2686 -1.4351 40.5188 -7.51614 -54.9871 8.33413 4.99626 14.1935 
109 -10.0947 84.6812 -38.5245 -77.6007 77.8781 83.0867 28.9823 9.69562 1.69587 
110 -27.1644 19.5547 -95.1196 -180.227 110.982 -94.9308 20.272 -6.5338 -4.80661 
111 -57.9155 -82.8807 -227.667 -98.3226 117.776 -31.2404 20.6723 12.5454 -15.8345 
112 -36.9487 65.9014 -55.2042 76.3712 -208.685 105.927 9.29705 9.21764 -6.81602 
113 70.1404 -176.773 130.661 -70.8361 36.035 129.394 2.50051 10.0816 -1.83364 
114 122.986 40.6932 62.9227 -1.55441 46.565 -94.1508 11.3975 3.35996 -17.7099 
115 -64.8885 43.8958 75.6702 23.059 26.3597 12.9447 15.3034 4.16621 5.50024 
116 29.5991 34.8879 21.0374 26.988 -16.4152 -80.1576 8.19028 -3.45541 5.27497 
117 57.1796 100.85 40.0097 129.923 -130.58 -152.796 11.1681 5.38879 2.13009 
118 8.13038 -35.7333 -0.853813 -71.0031 -42.1126 19.6323 15.1185 12.7516 17.251 
119 -77.057 -107.005 40.151 -7.33292 34.3145 113.863 22.2886 24.5252 4.09303 
120 -175.434 -103.489 -64.9159 -96.9276 -78.5614 72.5152 14.3026 -0.882794 -6.93061 
121 27.1864 36.4762 63.2003 119.726 63.9756 79.1865 17.0403 13.0914 5.53531 
122 -2.02403 73.9863 -118.49 -2.90743 39.6597 31.9252 22.0842 5.72821 -12.2122 
123 71.4498 1.64911 75.1026 70.2151 118.499 43.3348 15.0106 9.85587 -8.87982 
124 78.1231 100.229 -69.7672 -138.825 63.2518 125.841 9.87485 5.08343 -5.92612 
125 44.0941 69.8578 -160.761 8.01066 22.2693 -69.8223 12.8195 -2.06854 -17.0297 
126 -64.4335 24.7475 73.408 -31.343 -27.0497 -23.8593 16.3568 10.7765 -16.6095 
127 247.019 -58.8208 -146.579 91.767 -56.8028 99.7395 8.82436 10.6678 -3.86979 
128 10.9548 9.87555 -109.335 -66.2206 -26.9886 -143.063 27.9009 9.86565 -7.03195 
129 151.791 0 30.2909 0 61.5584 0 3.28676 -2.57399 -9.81755 
130 26.1341 -140.115 51.494 62.7059 -97.3534 -87.5079 17.3773 11.3615 -2.58624 
131 -58.789 66.4142 37.9545 153.349 4.05912 -52.1728 12.2872 11.1509 -6.59738 
132 9.03842 73.8492 57.5324 12.1847 107.085 107.718 15.1291 12.379 -6.9719 
133 -44.4107 -87.0061 84.5851 8.00167 -88.0556 -18.0075 0.251464 2.39231 -0.497973 
134 89.9842 -16.1478 -37.4249 -118.32 106.789 37.5852 11.7575 5.9455 1.0499 
135 92.7847 29.8895 -52.6471 -18.3286 73.0134 39.7433 24.2427 0.363361 5.0507 
136 22.0284 -23.2615 -0.69157 94.6916 -82.8738 -15.415 -0.61773 7.60685 1.63763 
137 152.304 0 -56.7076 0 -215.227 0 4.72509 3.04275 1.24038 
138 22.0284 23.2615 -0.69157 -94.6916 -82.8738 15.415 12.3082 14.2179 -13.3272 
139 92.7847 -29.8895 -52.6471 18.3286 73.0134 -39.7433 14.4578 12.9544 -6.15024 
140 89.9842 16.1478 -37.4249 118.32 106.789 -37.5852 21.3806 -1.83222 0.143578 
141 -44.4107 87.0061 84.5851 -8.00167 -88.0556 18.0075 4.99072 8.3474 0.764502 
142 9.03842 -73.8492 57.5324 -12.1847 107.085 -107.718 20.623 7.07591 6.56335 
143 -58.789 -66.4142 37.9545 -153.349 4.05912 52.1728 16.3243 -6.40517 -15.4709 
144 26.1341 140.115 51.494 -62.7059 -97.3534 87.5079 12.1524 0.412691 -11.7114 
145 70.1404 176.773 130.661 70.8361 36.035 -129.394 10.9543 10.4402 -17.061 
146 10.9548 -9.87555 -109.335 66.2206 -26.9886 143.063 26.8329 7.33888 -12.6335 
147 247.019 58.8208 -146.579 -91.767 -56.8028 -99.7395 13.5424 8.8817 2.26689 
148 -64.4335 -24.7475 73.408 31.343 -27.0497 23.8593 4.83759 15.0345 -17.561 
149 44.0941 -69.8578 -160.761 -8.01066 22.2693 69.8223 19.167 3.90966 4.30575 
150 78.1231 -100.229 -69.7672 138.825 63.2518 -125.841 8.25018 14.7858 -6.64232 
151 71.4498 -1.64911 75.1026 -70.2151 118.499 -43.3348 8.94934 11.1919 -8.08108 
152 -2.02403 -73.9863 -118.49 2.90743 39.6597 -31.9252 6.53644 15.6811 -10.4659 
153 27.1864 -36.4762 63.2003 -119.726 63.9756 -79.1865 15.2006 8.35611 -4.42704 
154 -175.434 103.489 -64.9159 96.9276 -78.5614 -72.5152 2.6265 4.41464 -0.676899 
155 -77.057 107.005 40.151 7.33292 34.3145 -113.863 5.87987 12.7514 0.17579 
156 8.13038 35.7333 -0.853813 71.0031 -42.1126 -19.6323 12.8261 4.96605 -7.3926 
157 57.1796 -100.85 40.0097 -129.923 -130.58 152.796 7.09679 -7.31103 9.15835 
158 29.5991 -34.8879 21.0374 -26.988 -16.4152 80.1576 19.8252 6.89439 5.63808 
159 -64.8885 -43.8958 75.6702 -23.059 26.3597 -12.9447 4.58522 10.0146 -3.99739 
160 122.986 -40.6932 62.9227 1.55441 46.565 94.1508 13.9887 6.90857 -9.48529 
161 -48.2834 -4.9098 -116.973 -38.1797 77.1527 49.5045 4.08135 19.679 -6.63745 
162 -36.9487 -65.9014 -55.2042 -76.3712 -208.685 -105.927 3.7081 -1.97427 -10.0033 
163 -57.9155 82.8807 -227.667 98.3226 117.776 31.2404 7.20973 5.20007 -16.0013 
164 -27.1644 -19.5547 -95.1196 180.227 110.982 94.9308 4.67068 8.48766 -10.3665 
165 -10.0947 -84.6812 -38.5245 77.6007 77.8781 -83.0867 9.87857 -5.43511 -17.4923 
166 110.86 -71.2686 -1.4351 -40.5188 -7.51614 54.9871 2.19763 5.31015 -3.66541 
167 13.6125 51.5444 -10.0115 49.3776 52.359 251.606 -3.26453 9.32151 -4.39189 
168 53.6284 89.5018 92.2227 -160.855 -80.1391 34.6495 18.31 6.8079 2.4344 
169 108.473 -185.104 37.969 152.204 -118.528 60.8026 7.479 15.4873 3.20073 
170 -30.0683 123.388 -21.5219 -89.0112 -47.5378 -93.6042 8.3861 -6.94954 0.488781 
171 132.293 -33.9733 -185.488 131.771 86.1156 103.789 16.2283 0.36789 10.102 
172 106.228 -25.5941 60.5812 -30.2178 58.0797 14.7777 18.1998 11.773 -1.83178 
173 -150.013 -109.881 16.4888 57.9697 74.1805 33.2748 5.11075 11.0667 -12.0416 
174 36.473 -2.39322 -50.0126 -26.2644 -47.1305 -86.1856 8.43001 -7.68548 -2.74702 
175 20.4629 64.7905 -197.492 -13.0294 61.6375 50.6302 9.61966 4.44692 -1.09545 
176 13.4242 -59.8592 -58.1985 -8.71711 101.502 14.5134 5.13366 4.49036 -12.6125 
177 27.6665 50.3141 -77.7956 23.8018 100.747 47.5374 -6.65455 -1.96289 -11.8366 
178 -152.426 -75.6595 -40.6685 -81.2041 -29.3002 -87.3704 -1.84147 10.4922 -10.98 
179 -109.192 -98.9682 -62.9157 -81.4339 57.4239 -25.7939 7.94141 15.989 -6.37128 
180 -14.7273 84.5991 25.4056 -64.998 -50.2472 -71.8903 -0.419071 18.2613 -14.4866 
181 45.2124 -47.1312 161.261 -129.393 -86.409 -22.197 14.8625 -4.13708 -14.3043 
182 10.8252 102.731 49.2139 -106.002 -82.2961 7.84546 16.2701 12.9991 -16.4956 
183 -163.314 -69.0714 139.284 -65.4501 60.0109 -63.7812 13.4508 10.5305 -14.5032 
184 139.802 -21.0783 110.64 -72.8641 72.7729 134.18 4.97107 14.5854 -1.27458 
185 223.748 76.2081 41.6027 -129.319 -144.997 -25.5945 11.3118 -5.19007 -14.9217 
186 77.6788 74.2673 132.804 97.7126 -131.239 35.0387 17.238 2.91812 -10.2772 
187 131.582 1.72825 -101.721 -123.286 79.2242 -42.3556 15.2632 9.46544 -19.254 
188 9.41238 -31.3182 -1.38641 -20.9908 -83.879 110.715 -2.37284 15.1407 -1.03229 
189 49.645 35.5129 -44.5183 22.5386 102.727 -45.9635 4.71604 14.2578 -0.917109 
190 42.0827 -44.2422 19.0711 73.8655 165.925 59.922 12.958 5.13484 -9.23275 
191 -42.2016 -57.2652 -14.9605 86.7041 143.883 -35.9922 -0.572785 6.14952 -9.66933 
192 -70.0974 -47.0434 58.9039 -24.4107 -153.052 -78.7748 22.2562 2.22984 -6.17955 
193 -90.8288 9.86016 7.96369 17.3212 8.59436 15.8411 1.25824 10.4146 -12.36 
194 -29.5621 -123.797 -3.73734 -55.0812 -114.447 3.99238 7.18662 8.29179 -15.6981 
195 -12.3288 12.6592 1.91596 110.262 -68.2201 62.1254 4.40518 4.72432 -7.67374 
196 183.752 -62.4647 -83.0737 -86.3502 -115.958 103.855 -1.92834 7.2323 -14.2051 
197 9.58728 -67.1151 121.663 -58.2483 54.2694 -49.5176 19.9146 -2.36038 -10.9153 
198 -7.92456 3.04597 119.015 -2.83461 12.6824 -41.1671 6.63655 12.3736 0.567127 
199 -1.96556 -3.84304 20.6092 -163.002 46.182 -3.92392 10.0967 3.62439 0.70247 
200 61.8649 -76.4235 -6.81519 -22.8693 -68.3358 -22.0226 2.08869 7.28426 1.09484 
201 -73.4866 -47.3821 -116.895 -123.438 -47.5455 -60.5782 6.40338 12.9467 -13.5441 
202 -62.1072 108.322 -28.7195 41.2386 -75.0132 120.467 15.8433 0.150103 1.73222 
203 -68.1741 -75.4615 -62.3142 81.1617 51.9285 93.2029 13.8906 7.08407 -13.1521 
204 -122.053 80.6042 -128.906 -20.9477 -111.333 -2.11263 16.5282 18.2519 -6.08779 
205 -102.414 -193.786 18.8962 -90.7358 -100.866 -147.048 22.9977 7.694 -12.363 
206 -44.2775 -88.3716 52.4521 38.206 49.0289 38.6547 -4.93779 -8.22541 9.97297 
207 -86.1952 -137.582 -10.5205 -34.3998 -15.7984 204.197 -0.932922 2.68505 -4.8701 
208 -95.9299 -188.918 -49.0089 -30.9353 55.5097 -119.102 3.89017 25.8654 -20.0085 
209 -49.1952 -99.9096 34.2643 -7.9488 -104.85 112.642 15.9295 11.1291 -1.14356 
210 -122.3 171.252 -35.9586 6.78713 45.0011 -195.34 7.32138 6.05118 -8.35906 
211 -87.5208 55.7522 -93.9428 68.0687 -73.9833 140.253 12.3615 -0.451555 -21.1342 
212 20.1787 -124.525 9.40422 -48.3151 -10.9192 -20.7346 -2.56479 4.96494 1.84694 
213 119.303 -22.9116 41.3582 -93.2493 -68.257 -48.9481 10.5322 11.6465 0.48948 
214 -227.995 27.7549 -159.061 23.3185 -79.8393 121.842 13.4451 -0.226847 4.97743 
215 -58.7664 66.087 24.5808 -18.7504 8.99275 13.7007 12.7257 9.22773 -15.6705 
216 56.9904 85.4561 97.512 0.575125 -6.75795 -133.674 21.0904 -6.30282 -8.10243 
217 28.1868 -222.625 -27.0248 -38.9235 -23.009 104.876 6.78156 -0.881584 5.43463 
218 -47.7114 31.2025 129.943 -85.5415 41.4246 -17.2119 -1.20552 -1.06184 -10.2899 
219 -142.391 86.4281 -135.213 105.893 -81.0737 1.20674 7.09903 9.13098 -17.4663 
220 266.561 58.4509 -58.0195 36.9376 -2.49363 16.7743 12.2217 12.2173 -12.4816 
221 -18.0055 -106.222 20.6547 98.2639 -48.8073 -70.9252 5.68859 4.52639 -8.91929 
222 22.4564 -24.3946 102.405 -96.7638 -24.4207 -35.2557 9.1282 13.3553 -7.12505 
223 58.3435 -1.31445 -44.5821 63.7784 6.18754 23.8341 11.9744 6.98876 -11.0393 
224 -92.5064 73.9251 15.713 -72.5266 -150.242 20.2361 2.80833 -4.77562 -0.403587 
225 95.0848 165.622 17.7494 -11.0401 70.2703 80.5169 24.8121 6.26782 -5.39869 
226 11.9042 17.9612 -7.7491 20.2249 -128.213 19.8313 18.3538 20.8341 -7.58804 
227 50.4918 -7.46024 41.8799 16.7991 -135.38 -22.3964 4.29646 6.73768 -16.8399 
228 -28.077 93.2308 -0.0162417 46.5533 10.7939 15.2591 16.1459 9.17434 -2.0094 
229 -13.742 -11.8073 -118.671 25.3874 20.4507 96.2073 6.56102 -3.58312 -6.03718 
230 -101.053 64.0782 -52.2586 -8.78771 -124.872 37.797 -3.24365 2.79445 -11.0901 
231 55.5176 98.1148 -5.87648 -95.7304 -85.9826 49.0872 -3.87855 15.469 -2.175 
232 -136.239 33.308 139.332 -59.0864 -131.856 -51.0892 8.38027 0.945591 -1.09373 
233 4.8507 43.131 -38.7334 -17.092 129.386 11.1256 5.64639 8.25456 -2.37856 
234 -21.4936 -26.3853 33.6201 -5.42391 -161.566 26.6705 -6.82347 1.78413 -7.751 
235 46.2902 -115.686 -24.0356 -89.9532 -87.8351 125.364 18.6876 6.08725 -0.195121 
236 106.13 122.755 71.6766 -16.9366 -76.2558 18.2174 3.19819 10.4515 -14.0716 
237 -59.122 -114.052 95.3855 -92.5933 -4.68584 -27.7132 6.39744 8.21443 -0.717973 
238 27.2678 -50.6895 -35.8921 50.6416 -47.7954 10.9766 20.3457 7.70435 -3.09463 
239 -50.4803 28.4776 7.65854 -42.9027 -65.5222 -117.479 12.7282 13.9584 0.0451245 
240 58.6521 56.8223 -24.6077 -40.8243 69.6319 -126.916 13.7534 3.0404 -7.21308 
241 -219.801 -247.344 0.920747 5.3699 -111.988 -170.406 -1.79177 2.27605 -13.9381 
242 95.7114 -23.9524 129.153 -40.3045 165.097 10.0443 12.6669 10.359 -5.43321 
243 3.1294 20.9723 -102.883 120.163 88.7019 -141.834 3.14354 14.3391 1.10392 
244 16.44 88.8793 -153.765 108.993 -81.4081 -145.135 15.2115 6.86407 -13.9883 
245 93.2011 -12.3686 79.4652 -37.8922 0.0731094 -9.01437 10.5723 -2.00488 6.6683 
246 -52.6105 -36.2188 -62.4294 -4.30895 -48.6304 34.0101 10.9911 7.67505 -6.87147 
247 132.281 26.9562 -50.7301 112.372 -73.8465 17.0292 9.7961 1.33079 -2.62009 
248 93.3082 23.0029 -34.8084 -56.2365 -96.9359 24.3226 24.3438 17.7867 -4.14904 
249 2.85781 107.522 -8.30738 -72.459 -13.1333 -11.9753 -3.51682 6.16781 1.01466 
250 148.535 -101.868 71.0837 62.7532 -117.113 -68.9159 13.9218 6.1311 -3.30772 
251 -34.5047 -130.768 63.0191 26.2908 -124.355 -87.3924 4.95692 9.41501 -3.99737 
252 141.03 -75.341 -35.1107 -33.7038 12.987 24.8603 17.9139 13.166 -15.3268 
253 72.2638 30.0664 2.66938 59.9619 136.788 -36.9757 -5.63103 -0.346266 -11.1324 
254 17.0563 0.56222 104.42 86.9763 -13.9231 14.292 8.95167 2.71065 -7.89587 
255 11.4942 -37.9184 -11.3886 16.5269 143.643 17.3617 15.4874 0.22069 -12.4997 
256 -12.7862 -86.395 27.0597 113.71 18.595 -110.309 0.635833 14.5517 -11.4196 
