ITEM: TIMESTEP
0
ITEM: NUMBER OF CELLS
256
ITEM: BOX BOUNDS pp pp pp
0 0.00016
0 0.00016
-0.5 0.5
ITEM: CELLS id c_2[1] c_2[2] c_2[3] c_2[4] c_2[5] c_2[6] f_1[1] f_1[2] f_1[3] 
1 0 0 0 0 0 0 0 0 0 
5 0 0 0 0 0 0 0 0 0 
17 0 0 0 0 0 0 0 0 0 
21 0 0 0 0 0 0 0 0 0 
33 0 0 0 0 0 0 0 0 0 
37 0 0 0 0 0 0 0 0 0 
49 0 0 0 0 0 0 0 0 0 
53 0 0 0 0 0 0 0 0 0 
65 0 0 0 0 0 0 0 0 0 
69 0 0 0 0 0 0 0 0 0 
81 0 0 0 0 0 0 0 0 0 
85 0 0 0 0 0 0 0 0 0 
97 0 0 0 0 0 0 0 0 0 
101 0 0 0 0 0 0 0 0 0 
113 0 0 0 0 0 0 0 0 0 
117 0 0 0 0 0 0 0 0 0 
4 0 0 0 0 0 0 0 0 0 
8 0 0 0 0 0 0 0 0 0 
20 0 0 0 0 0 0 0 0 0 
24 0 0 0 0 0 0 0 0 0 
36 0 0 0 0 0 0 0 0 0 
40 0 0 0 0 0 0 0 0 0 
52 0 0 0 0 0 0 0 0 0 
56 0 0 0 0 0 0 0 0 0 
68 0 0 0 0 0 0 0 0 0 
72 0 0 0 0 0 0 0 0 0 
84 0 0 0 0 0 0 0 0 0 
88 0 0 0 0 0 0 0 0 0 
100 0 0 0 0 0 0 0 0 0 
104 0 0 0 0 0 0 0 0 0 
116 0 0 0 0 0 0 0 0 0 
120 0 0 0 0 0 0 0 0 0 
2 0 0 0 0 0 0 0 0 0 
6 0 0 0 0 0 0 0 0 0 
18 0 0 0 0 0 0 0 0 0 
22 0 0 0 0 0 0 0 0 0 
34 0 0 0 0 0 0 0 0 0 
38 0 0 0 0 0 0 0 0 0 
50 0 0 0 0 0 0 0 0 0 
54 0 0 0 0 0 0 0 0 0 
66 0 0 0 0 0 0 0 0 0 
70 0 0 0 0 0 0 0 0 0 
82 0 0 0 0 0 0 0 0 0 
86 0 0 0 0 0 0 0 0 0 
98 0 0 0 0 0 0 0 0 0 
102 0 0 0 0 0 0 0 0 0 
114 0 0 0 0 0 0 0 0 0 
118 0 0 0 0 0 0 0 0 0 
3 0 0 0 0 0 0 0 0 0 
7 0 0 0 0 0 0 0 0 0 
19 0 0 0 0 0 0 0 0 0 
23 0 0 0 0 0 0 0 0 0 
35 0 0 0 0 0 0 0 0 0 
39 0 0 0 0 0 0 0 0 0 
51 0 0 0 0 0 0 0 0 0 
55 0 0 0 0 0 0 0 0 0 
67 0 0 0 0 0 0 0 0 0 
71 0 0 0 0 0 0 0 0 0 
83 0 0 0 0 0 0 0 0 0 
87 0 0 0 0 0 0 0 0 0 
99 0 0 0 0 0 0 0 0 0 
103 0 0 0 0 0 0 0 0 0 
115 0 0 0 0 0 0 0 0 0 
119 0 0 0 0 0 0 0 0 0 
130 0 0 0 0 0 0 0 0 0 
134 0 0 0 0 0 0 0 0 0 
146 0 0 0 0 0 0 0 0 0 
150 0 0 0 0 0 0 0 0 0 
162 0 0 0 0 0 0 0 0 0 
166 0 0 0 0 0 0 0 0 0 
178 0 0 0 0 0 0 0 0 0 
182 0 0 0 0 0 0 0 0 0 
194 0 0 0 0 0 0 0 0 0 
198 0 0 0 0 0 0 0 0 0 
210 0 0 0 0 0 0 0 0 0 
214 0 0 0 0 0 0 0 0 0 
226 0 0 0 0 0 0 0 0 0 
230 0 0 0 0 0 0 0 0 0 
242 0 0 0 0 0 0 0 0 0 
246 0 0 0 0 0 0 0 0 0 
129 0 0 0 0 0 0 0 0 0 
133 0 0 0 0 0 0 0 0 0 
145 0 0 0 0 0 0 0 0 0 
149 0 0 0 0 0 0 0 0 0 
161 0 0 0 0 0 0 0 0 0 
165 0 0 0 0 0 0 0 0 0 
177 0 0 0 0 0 0 0 0 0 
181 0 0 0 0 0 0 0 0 0 
193 0 0 0 0 0 0 0 0 0 
197 0 0 0 0 0 0 0 0 0 
209 0 0 0 0 0 0 0 0 0 
213 0 0 0 0 0 0 0 0 0 
225 0 0 0 0 0 0 0 0 0 
229 0 0 0 0 0 0 0 0 0 
241 0 0 0 0 0 0 0 0 0 
245 0 0 0 0 0 0 0 0 0 
131 0 0 0 0 0 0 0 0 0 
135 0 0 0 0 0 0 0 0 0 
147 0 0 0 0 0 0 0 0 0 
151 0 0 0 0 0 0 0 0 0 
163 0 0 0 0 0 0 0 0 0 
167 0 0 0 0 0 0 0 0 0 
179 0 0 0 0 0 0 0 0 0 
183 0 0 0 0 0 0 0 0 0 
195 0 0 0 0 0 0 0 0 0 
199 0 0 0 0 0 0 0 0 0 
211 0 0 0 0 0 0 0 0 0 
215 0 0 0 0 0 0 0 0 0 
227 0 0 0 0 0 0 0 0 0 
231 0 0 0 0 0 0 0 0 0 
243 0 0 0 0 0 0 0 0 0 
247 0 0 0 0 0 0 0 0 0 
132 0 0 0 0 0 0 0 0 0 
136 0 0 0 0 0 0 0 0 0 
148 0 0 0 0 0 0 0 0 0 
152 0 0 0 0 0 0 0 0 0 
164 0 0 0 0 0 0 0 0 0 
168 0 0 0 0 0 0 0 0 0 
180 0 0 0 0 0 0 0 0 0 
184 0 0 0 0 0 0 0 0 0 
196 0 0 0 0 0 0 0 0 0 
200 0 0 0 0 0 0 0 0 0 
212 0 0 0 0 0 0 0 0 0 
216 0 0 0 0 0 0 0 0 0 
228 0 0 0 0 0 0 0 0 0 
232 0 0 0 0 0 0 0 0 0 
244 0 0 0 0 0 0 0 0 0 
248 0 0 0 0 0 0 0 0 0 
11 0 0 0 0 0 0 0 0 0 
15 0 0 0 0 0 0 0 0 0 
27 0 0 0 0 0 0 0 0 0 
31 0 0 0 0 0 0 0 0 0 
43 0 0 0 0 0 0 0 0 0 
47 0 0 0 0 0 0 0 0 0 
59 0 0 0 0 0 0 0 0 0 
63 0 0 0 0 0 0 0 0 0 
75 0 0 0 0 0 0 0 0 0 
79 0 0 0 0 0 0 0 0 0 
91 0 0 0 0 0 0 0 0 0 
95 0 0 0 0 0 0 0 0 0 
107 0 0 0 0 0 0 0 0 0 
111 0 0 0 0 0 0 0 0 0 
123 0 0 0 0 0 0 0 0 0 
127 0 0 0 0 0 0 0 0 0 
9 0 0 0 0 0 0 0 0 0 
13 0 0 0 0 0 0 0 0 0 
25 0 0 0 0 0 0 0 0 0 
29 0 0 0 0 0 0 0 0 0 
41 0 0 0 0 0 0 0 0 0 
45 0 0 0 0 0 0 0 0 0 
57 0 0 0 0 0 0 0 0 0 
61 0 0 0 0 0 0 0 0 0 
73 0 0 0 0 0 0 0 0 0 
77 0 0 0 0 0 0 0 0 0 
89 0 0 0 0 0 0 0 0 0 
93 0 0 0 0 0 0 0 0 0 
105 0 0 0 0 0 0 0 0 0 
109 0 0 0 0 0 0 0 0 0 
121 0 0 0 0 0 0 0 0 0 
125 0 0 0 0 0 0 0 0 0 
10 0 0 0 0 0 0 0 0 0 
14 0 0 0 0 0 0 0 0 0 
26 0 0 0 0 0 0 0 0 0 
30 0 0 0 0 0 0 0 0 0 
42 0 0 0 0 0 0 0 0 0 
46 0 0 0 0 0 0 0 0 0 
58 0 0 0 0 0 0 0 0 0 
62 0 0 0 0 0 0 0 0 0 
74 0 0 0 0 0 0 0 0 0 
78 0 0 0 0 0 0 0 0 0 
90 0 0 0 0 0 0 0 0 0 
94 0 0 0 0 0 0 0 0 0 
106 0 0 0 0 0 0 0 0 0 
110 0 0 0 0 0 0 0 0 0 
122 0 0 0 0 0 0 0 0 0 
126 0 0 0 0 0 0 0 0 0 
12 0 0 0 0 0 0 0 0 0 
16 0 0 0 0 0 0 0 0 0 
28 0 0 0 0 0 0 0 0 0 
32 0 0 0 0 0 0 0 0 0 
44 0 0 0 0 0 0 0 0 0 
48 0 0 0 0 0 0 0 0 0 
60 0 0 0 0 0 0 0 0 0 
64 0 0 0 0 0 0 0 0 0 
76 0 0 0 0 0 0 0 0 0 
80 0 0 0 0 0 0 0 0 0 
92 0 0 0 0 0 0 0 0 0 
96 0 0 0 0 0 0 0 0 0 
108 0 0 0 0 0 0 0 0 0 
112 0 0 0 0 0 0 0 0 0 
124 0 0 0 0 0 0 0 0 0 
128 0 0 0 0 0 0 0 0 0 
140 0 0 0 0 0 0 0 0 0 
144 0 0 0 0 0 0 0 0 0 
156 0 0 0 0 0 0 0 0 0 
160 0 0 0 0 0 0 0 0 0 
172 0 0 0 0 0 0 0 0 0 
176 0 0 0 0 0 0 0 0 0 
188 0 0 0 0 0 0 0 0 0 
192 0 0 0 0 0 0 0 0 0 
204 0 0 0 0 0 0 0 0 0 
208 0 0 0 0 0 0 0 0 0 
220 0 0 0 0 0 0 0 0 0 
224 0 0 0 0 0 0 0 0 0 
236 0 0 0 0 0 0 0 0 0 
240 0 0 0 0 0 0 0 0 0 
252 0 0 0 0 0 0 0 0 0 
256 0 0 0 0 0 0 0 0 0 
139 0 0 0 0 0 0 0 0 0 
143 0 0 0 0 0 0 0 0 0 
155 0 0 0 0 0 0 0 0 0 
159 0 0 0 0 0 0 0 0 0 
171 0 0 0 0 0 0 0 0 0 
175 0 0 0 0 0 0 0 0 0 
187 0 0 0 0 0 0 0 0 0 
191 0 0 0 0 0 0 0 0 0 
203 0 0 0 0 0 0 0 0 0 
207 0 0 0 0 0 0 0 0 0 
219 0 0 0 0 0 0 0 0 0 
223 0 0 0 0 0 0 0 0 0 
235 0 0 0 0 0 0 0 0 0 
239 0 0 0 0 0 0 0 0 0 
251 0 0 0 0 0 0 0 0 0 
255 0 0 0 0 0 0 0 0 0 
137 0 0 0 0 0 0 0 0 0 
141 0 0 0 0 0 0 0 0 0 
153 0 0 0 0 0 0 0 0 0 
157 0 0 0 0 0 0 0 0 0 
169 0 0 0 0 0 0 0 0 0 
173 0 0 0 0 0 0 0 0 0 
185 0 0 0 0 0 0 0 0 0 
189 0 0 0 0 0 0 0 0 0 
201 0 0 0 0 0 0 0 0 0 
205 0 0 0 0 0 0 0 0 0 
217 0 0 0 0 0 0 0 0 0 
221 0 0 0 0 0 0 0 0 0 
233 0 0 0 0 0 0 0 0 0 
237 0 0 0 0 0 0 0 0 0 
249 0 0 0 0 0 0 0 0 0 
253 0 0 0 0 0 0 0 0 0 
138 0 0 0 0 0 0 0 0 0 
142 0 0 0 0 0 0 0 0 0 
154 0 0 0 0 0 0 0 0 0 
158 0 0 0 0 0 0 0 0 0 
170 0 0 0 0 0 0 0 0 0 
174 0 0 0 0 0 0 0 0 0 
186 0 0 0 0 0 0 0 0 0 
190 0 0 0 0 0 0 0 0 0 
202 0 0 0 0 0 0 0 0 0 
206 0 0 0 0 0 0 0 0 0 
218 0 0 0 0 0 0 0 0 0 
222 0 0 0 0 0 0 0 0 0 
234 0 0 0 0 0 0 0 0 0 
238 0 0 0 0 0 0 0 0 0 
250 0 0 0 0 0 0 0 0 0 
254 0 0 0 0 0 0 0 0 0 
ITEM: TIMESTEP
1000
ITEM: NUMBER OF CELLS
256
ITEM: BOX BOUNDS pp pp pp
0 0.00016
0 0.00016
-0.5 0.5
ITEM: CELLS id c_2[1] c_2[2] c_2[3] c_2[4] c_2[5] c_2[6] f_1[1] f_1[2] f_1[3] 
1 1001.49 0 2845.46 0 -923.385 0 1.47443 14.3111 -14.0278 
5 88.7695 18.4054 41.0585 -67.527 -77.6513 0.0534544 7.7632 15.4397 -14.3552 
17 153.73 -3.71399 21.8968 3.22565 -188.461 -194.545 7.36952 2.74395 2.64008 
21 144.822 -35.9469 113.806 -30.1197 15.6036 -32.6694 2.8538 28.99 -17.4386 
33 -99.7117 -88.9309 -0.926427 1.20126 37.9764 -256.143 6.54169 11.6129 -8.33598 
37 -78.9076 129.688 114.672 -113.757 -109.673 64.7429 4.50429 13.5517 3.47446 
49 -70.2433 -36.3904 85.6478 -23.3726 -107.56 -68.7225 2.59403 9.94015 -3.93057 
53 70.6871 -42.4302 -48.323 98.2961 -62.5359 -16.1914 6.39544 0.963757 -6.68902 
65 -114.298 -33.3034 -45.4178 -61.1899 -209.015 10.6994 8.99599 -0.28866 -19.1548 
69 13.2961 -61.8667 166.155 34.2568 70.6612 28.1223 1.67237 6.37371 1.88354 
81 -151.053 -119.951 -84.9145 -104.353 -38.9788 -106.603 1.85703 14.7262 -3.2364 
85 -89.1105 -154.713 -94.3223 -109.241 -79.3746 -84.5248 16.73 5.83898 2.59507 
97 -35.4805 70.133 -47.8888 -39.3031 -0.670051 123.94 7.25778 11.8621 -2.78386 
101 -109.521 -33.902 -3.34516 36.8327 5.81872 53.4409 -7.69751 11.5277 2.72849 
113 -48.6518 -64.356 -52.284 -72.3451 53.0812 -17.4313 -11.2762 6.94738 -8.01052 
117 -33.2449 -150.228 97.6467 -45.4879 -142.549 85.5686 9.53623 5.04649 -11.7456 
4 -13.9546 -13.6526 2.95233 -33.7358 -32.6319 97.3411 -0.0305413 14.4196 -1.22063 
8 -27.4343 -99.7932 66.0529 -25.1168 74.5714 -149.507 6.88361 23.0022 -12.5709 
20 -37.5232 75.5341 10.4945 -210.444 178.342 17.9887 -10.7323 13.2019 -5.60964 
24 -64 -39.5513 30.8809 -35.4152 -27.5371 43.0434 -5.32664 2.3787 1.49985 
36 -27.7619 24.7397 137.728 -204.212 171.628 16.3926 11.4072 4.75388 -7.20127 
40 35.309 1.93961 -278.494 -18.3151 -74.0578 117.471 2.54653 11.9252 -2.43069 
52 20.5156 -113.657 -13.095 138.415 87.5592 5.24643 -6.57481 11.3951 -7.50418 
56 52.2133 124.331 80.2766 130.729 10.3258 -12.89 8.96955 15.2783 -3.0476 
68 18.7346 9.7137 -100.358 64.6249 -26.9624 85.0477 12.5749 4.99917 -10.4312 
72 20.8234 50.8538 -113.49 21.3621 45.0575 29.4771 6.65058 11.0991 -11.6549 
84 161.606 46.4636 66.1984 -151.186 38.4214 -31.2453 4.82184 -0.547349 -15.7113 
88 116.549 -23.3671 39.7206 -45.8814 -34.4946 120.452 7.56356 28.086 10.1174 
100 -120.978 -43.8695 -37.9807 -41.9024 -14.3326 -13.1815 -7.95304 4.11926 -5.93215 
104 159.229 -55.0124 170.286 -16.5117 60.9712 -168.452 16.4976 21.1923 -5.81206 
116 -64.2685 47.4135 -20.1533 -36.1278 -53.683 -59.7192 9.06852 3.65492 -6.96364 
120 227.205 125.976 -15.5578 6.53504 -16.7851 -42.2886 -0.147676 12.6742 -8.48666 
2 1.79012 -4.31031 -11.8256 -71.5153 -253.612 -108.029 -11.1423 4.42635 -1.00085 
6 -92.5761 -13.278 -4.34338 -121.106 33.0548 116.581 -1.66662 11.1767 -3.47935 
18 -46.6689 -39.5273 77.6457 52.6802 36.2556 -15.8193 7.26702 4.35414 -14.4682 
22 -34.2211 -147.197 -85.6236 -137.775 -0.24819 59.7621 -0.352728 4.53003 -6.47793 
34 89.6376 -22.4669 -37.0858 4.64886 69.2278 -101.708 0.840882 8.28591 -11.4217 
38 30.4538 78.2741 98.1975 -21.1415 56.5387 260.811 1.66879 17.4206 -6.29096 
50 133.685 -178.076 16.2832 65.4855 -122.503 -30.0828 -1.12113 6.66831 -10.3425 
54 29.3753 12.567 42.8438 63.6044 141.127 -13.0835 6.78884 9.23638 3.78574 
66 103.156 105.002 30.6316 35.2951 -6.32966 -42.6631 7.4616 7.61435 -26.0047 
70 15.4859 111.572 -53.211 18.9795 -22.6363 71.5364 8.33732 11.1588 -10.0223 
82 54.3138 42.8808 8.9525 106.24 100.838 63.9671 -6.53924 15.1912 -19.8781 
86 26.8818 -136.702 101.312 0.66844 -41.413 81.358 -0.466747 2.78742 -7.71325 
98 58.8596 10.1844 114.315 -46.0283 -77.2931 11.2811 4.82617 6.10294 -4.78389 
102 -42.4315 -88.0908 41.0064 2.45605 46.5555 -130.854 3.44942 17.5363 1.90544 
114 -88.6512 -71.7837 -55.7107 -40.0346 -17.1208 49.9285 -4.62413 18.2562 -2.71712 
118 -1.90097 40.3453 -181.342 106.401 -71.8439 -20.2383 7.77473 10.6505 1.23562 
3 -3.12009 -39.6168 -16.3738 -163.377 -23.3601 -33.5891 9.05888 2.63649 -5.60549 
7 -36.4572 -12.5517 -53.8035 -114.361 74.7877 111.144 -7.62209 -2.71104 -3.90357 
19 -12.0145 -86.6799 89.3744 197.185 104.565 63.0674 -2.74926 3.51745 -14.0913 
23 54.7245 68.6027 0.0455997 -70.0856 56.2557 -68.6052 6.83183 11.5134 -8.6291 
35 -30.2822 20.6612 -1.84909 -32.2084 150.193 72.9738 0.670321 14.2797 -15.1331 
39 -282.562 -4.54305 -93.9279 -173.65 54.427 87.7672 11.8565 -1.981 -3.8524 
51 -21.2802 63.935 -90.6136 -53.5393 -128.698 -1.7916 9.86156 8.96707 -4.34312 
55 -44.3446 77.2112 -125.688 -58.3491 -87.1538 38.7193 23.9822 9.85145 -5.62883 
67 -61.7324 50.3473 58.4929 -180.542 -60.0943 131.456 0.777203 18.0818 -8.49128 
71 86.3541 -61.8534 46.4497 -94.7072 86.5479 137.359 0.30064 15.2101 -3.03068 
83 -110.376 -123.381 40.7502 -46.9982 -23.1323 14.205 10.5282 12.8799 -2.80503 
87 -5.22907 -25.8109 -165.993 -17.9779 194.034 64.3754 -5.35853 12.1402 4.44974 
99 57.5974 216.6 79.4397 -144.213 165.32 38.876 4.08677 11.7254 -2.19269 
103 -16.4481 -128.613 54.4403 89.1701 80.1322 49.5649 -4.40437 6.22703 9.78007 
115 -42.3407 83.7149 50.2682 103.581 -112.105 -1.07428 6.59139 0.324245 0.814545 
119 -14.9362 -95.2167 -67.6505 16.5413 -148.808 87.5416 -11.0134 10.4648 -2.70657 
130 -22.0843 -146.396 67.0622 -153.875 -33.9112 -111.26 5.16919 8.63917 15.7796 
134 -99.736 -55.2768 29.5965 -101.575 117.529 9.1155 6.74948 8.08029 -10.0773 
146 42.4358 93.7874 -18.2132 -91.1907 -29.6817 -26.1632 13.5138 -4.95347 -6.38536 
150 35.3174 -4.21506 22.3204 -9.02891 36.1236 -206.206 -4.01932 13.5123 -6.65497 
162 -88.8334 -38.9997 -63.812 20.381 98.1627 134.203 15.3412 9.01902 -17.636 
166 -194.616 -20.6055 78.7192 -106.258 -17.6526 28.6323 -0.604607 12.6277 -21.0812 
178 32.5463 -96.5413 -10.5326 -24.1292 -87.6482 49.3836 5.19305 17.2813 -19.2007 
182 7.84839 -52.1738 48.8647 -45.3597 -71.6037 -78.7839 -5.25428 18.3672 -0.275851 
194 -90.6343 35.1785 -67.7242 88.6139 61.9717 -10.089 2.19191 14.066 3.5641 
198 88.9845 170.613 -38.2317 26.1223 -59.9348 -105.562 2.25418 20.9386 -3.71674 
210 -22.7428 103.275 -13.696 11.8177 -69.0704 -63.6994 -5.07339 1.3048 3.49032 
214 3.0429 45.5091 62.0589 247.134 124.203 122.034 17.1778 17.0066 -4.86634 
226 79.717 -142.866 3.02918 -61.1046 55.8181 -22.7772 4.44524 -1.66942 9.16218 
230 43.5212 -93.1449 126.133 83.1795 142.486 -210.598 5.5284 7.66495 -2.13029 
242 -105.375 27.1174 -90.0963 21.7516 72.4291 156.099 14.0727 12.6261 13.0215 
246 106.909 -62.1621 104.158 57.0802 -92.8619 79.6661 5.68828 18.9637 -12.5258 
129 223.184 0 169.031 0 27.3658 0 1.5982 13.7661 1.90637 
133 81.969 -162.177 110.065 -57.6246 77.7006 126.718 10.0145 7.28742 -20.8842 
145 -48.6518 64.356 -52.284 72.3451 53.0812 17.4313 14.1494 -1.70458 -11.9073 
149 16.4254 -130.401 -64.289 -94.7134 41.5291 -58.041 0.637679 15.8873 1.23113 
161 -35.4805 -70.133 -47.8888 39.3031 -0.670051 -123.94 5.31808 15.6971 6.04887 
165 -126.068 7.3312 17.4924 13.2794 -59.3135 -10.9008 10.5321 3.90248 -2.7218 
177 -151.053 119.951 -84.9145 104.353 -38.9788 106.603 2.32018 6.19397 -10.3379 
181 128.537 96.6699 -59.4729 47.5255 -117.835 112.858 7.2325 7.67295 -0.2644 
193 -114.298 33.3034 -45.4178 61.1899 -209.015 -10.6994 10.3158 19.6726 -5.68171 
197 -33.6928 -28.9966 -24.8495 1.47945 -64.5644 190.382 14.275 11.8266 0.565939 
209 -70.2433 36.3904 85.6478 23.3726 -107.56 68.7225 -0.196445 13.7273 1.16023 
213 4.66145 -13.2571 18.8869 -23.4115 -20.8496 -48.945 -2.07211 5.90276 -10.0753 
225 -99.7117 88.9309 -0.926427 -1.20126 37.9764 256.143 -2.46255 13.7593 -3.43545 
229 76.3354 32.9194 44.3028 -93.7671 -112.475 152.027 1.55711 2.77172 5.72266 
241 153.73 3.71399 21.8968 -3.22565 -188.461 194.545 6.81606 17.6374 -3.59065 
245 -58.8802 62.8925 129.473 93.6544 76.5256 88.0617 17.1367 21.8399 0.35534 
131 99.0903 -57.9933 -71.4578 57.5819 -97.154 60.6595 10.0546 7.75861 -10.3808 
135 -24.6876 -17.833 21.8777 -66.1888 -36.1941 190.149 0.465941 14.1417 -3.41042 
147 -141.459 69.6478 60.3716 -65.6945 -305.396 -81.6162 -5.13258 8.16734 1.11085 
151 87.1948 53.4917 79.1591 -137.099 -119.55 -10.7625 3.36349 12.0166 19.6587 
163 -121.606 -111.905 89.1887 159.481 120.579 57.1597 -3.40651 9.66741 -15.6599 
167 -4.87983 -44.2639 -9.75163 -13.0317 22.5632 -152.818 8.9303 17.0784 3.11105 
179 -25.7079 28.6247 -55.639 -17.0181 43.2713 89.325 12.8727 13.7573 -2.10508 
183 -127.538 -85.9005 67.9029 -41.3895 99.9156 -6.17857 -0.0438856 12.3633 -6.93442 
195 -31.897 -22.0211 60.7787 121.712 -51.0072 4.89011 -9.40264 14.0933 -18.1504 
199 32.9952 -145.112 -14.0494 3.75338 82.9994 47.1361 10.3848 5.95635 -5.57493 
211 172.56 42.0742 76.636 -7.77547 -52.2977 -120.332 19.3323 20.3415 14.5378 
215 -235.665 123.87 38.8173 84.0663 1.90811 -177.521 -0.539552 20.0136 -4.43927 
227 -83.5305 0.35979 -99.7725 55.1617 -80.1597 140.017 15.399 7.57189 2.08171 
231 59.7014 -3.08223 -72.6238 -82.8333 -13.4483 23.467 16.1693 5.70519 4.87573 
243 -44.4169 -61.4939 -153.955 -81.8409 -21.1138 -9.71922 -4.41971 11.1484 1.05891 
247 29.6549 18.9709 57.1692 136.792 -45.8792 -131.041 13.2866 19.3498 -5.21124 
132 96.4123 17.6749 -3.0402 18.3626 -17.1096 -81.0483 -9.20187 10.2556 1.57847 
136 -67.1059 -25.76 94.4395 34.4242 -107.63 73.1494 -3.79806 5.72068 -8.03679 
148 -141.913 -34.4259 20.3735 -10.1702 23.8498 63.5383 4.05686 6.11504 2.25832 
152 -134.06 38.0299 34.3637 -20.3954 152.774 -10.1757 0.798468 18.1545 0.769943 
164 14.1469 -16.7157 -51.787 88.4656 9.52187 -7.04654 -6.08614 24.5444 -5.26754 
168 71.8698 -94.9584 13.1015 12.5863 22.8024 34.7272 -12.8569 18.2099 7.63018 
180 66.7803 160.389 18.5767 58.1931 -36.0642 -56.3819 8.69679 11.9551 -4.93838 
184 97.4829 -30.8079 157.222 114.273 -58.621 -154.193 -6.09299 8.33771 16.7105 
196 18.4179 -138.043 40.9537 21.7892 -135.948 22.4272 2.25348 9.699 2.01289 
200 33.0355 -65.1976 -116.309 -58.674 -73.1968 94.0323 15.2983 14.5768 -9.10161 
212 -103.149 -154.402 -68.6552 -83.3734 -68.5463 -54.0667 -0.789171 7.56761 -3.91263 
216 149.58 33.7786 54.3277 -72.4465 199.667 -64.329 -0.776345 2.76671 -3.39931 
228 66.8722 -82.3003 38.6829 -51.8779 -56.4333 165.439 1.23037 22.039 -4.29214 
232 -38.2711 77.5328 -72.2698 71.1737 -31.1847 -25.4046 5.47874 5.07925 3.73507 
244 -41.22 53.1794 -133.77 47.0857 -175.01 -0.263028 11.1242 12.1343 -17.7799 
248 78.5043 -190.365 66.3578 -90.0049 -72.0151 38.9672 0.483148 12.0002 3.61776 
11 -36.4572 12.5517 -53.8035 114.361 74.7877 -111.144 -0.971667 10.1297 -3.07479 
15 -3.12009 39.6168 -16.3738 163.377 -23.3601 33.5891 4.59966 1.70078 -8.9708 
27 29.6549 -18.9709 57.1692 -136.792 -45.8792 131.041 2.62912 11.4474 5.86955 
31 -44.4169 61.4939 -153.955 81.8409 -21.1138 9.71922 7.67182 19.2098 -6.94074 
43 59.7014 3.08223 -72.6238 82.8333 -13.4483 -23.467 9.46687 7.22958 -2.21329 
47 -83.5305 -0.35979 -99.7725 -55.1617 -80.1597 -140.017 5.08247 17.8521 -2.21781 
59 -235.665 -123.87 38.8173 -84.0663 1.90811 177.521 -14.4325 -1.54323 -11.9902 
63 172.56 -42.0742 76.636 7.77547 -52.2977 120.332 -3.88666 21.0935 -5.56825 
75 32.9952 145.112 -14.0494 -3.75338 82.9994 -47.1361 4.36767 5.05231 -1.82451 
79 -31.897 22.0211 60.7787 -121.712 -51.0072 -4.89011 8.66983 26.9385 0.565832 
91 -127.538 85.9005 67.9029 41.3895 99.9156 6.17857 11.2954 3.57482 -5.9877 
95 -25.7079 -28.6247 -55.639 17.0181 43.2713 -89.325 16.9027 24.0408 -3.98986 
107 -4.87983 44.2639 -9.75163 13.0317 22.5632 152.818 5.61436 11.9879 6.98522 
111 -121.606 111.905 89.1887 -159.481 120.579 -57.1597 9.76637 12.9787 -3.27523 
123 87.1948 -53.4917 79.1591 137.099 -119.55 10.7625 15.1857 14.5742 -4.90264 
127 -141.459 -69.6478 60.3716 65.6945 -305.396 81.6162 -0.853327 13.8037 8.57775 
9 167.244 0 -163.229 0 10.2286 0 -9.10584 7.12817 -15.281 
13 88.7695 -18.4054 41.0585 67.527 -77.6513 -0.0534544 10.9378 9.81171 -12.827 
25 -65.8109 41.4314 -13.2779 60.1387 4.61202 70.3374 0.548308 9.54729 -6.59537 
29 -58.8802 -62.8925 129.473 -93.6544 76.5256 -88.0617 2.48948 19.9888 -25.7994 
41 18.2663 93.8192 18.7496 98.6193 -108.603 -88.7571 22.0275 13.4924 -11.9666 
45 76.3354 -32.9194 44.3028 93.7671 -112.475 -152.027 18.8847 21.6005 -5.94692 
57 50.8245 36.3783 -30.1625 -74.8663 26.0256 -110.475 1.99555 13.1111 15.4231 
61 4.66145 13.2571 18.8869 23.4115 -20.8496 48.945 -0.582862 -3.87684 -22.1568 
73 -7.35876 -0.43729 82.6569 187.101 -92.7737 24.602 9.76617 22.825 -8.03911 
77 -33.6928 28.9966 -24.8495 -1.47945 -64.5644 -190.382 -0.864089 15.6122 -0.763318 
89 -184.953 -12.0029 -97.2444 87.7997 71.4259 -88.7573 8.19101 17.2761 -6.1586 
93 128.537 -96.6699 -59.4729 -47.5255 -117.835 -112.858 -8.31736 4.666 -5.70484 
105 120.721 -49.8501 -89.7836 -98.3807 -208.545 -55.1087 8.80023 -9.5791 17.2854 
109 -126.068 -7.3312 17.4924 -13.2794 -59.3135 10.9008 18.3696 16.7813 -10.3534 
121 48.4146 -50.5376 -145.927 -48.3769 -61.427 50.9626 -6.61312 9.2878 -12.2302 
125 16.4254 130.401 -64.289 94.7134 41.5291 58.041 2.75536 -1.13636 4.92731 
10 -27.4343 99.7932 66.0529 25.1168 74.5714 149.507 5.6766 16.1989 2.96385 
14 -13.9546 13.6526 2.95233 33.7358 -32.6319 -97.3411 -0.083448 15.7371 4.52136 
26 78.5043 190.365 66.3578 90.0049 -72.0151 -38.9672 14.8139 2.91181 -10.6492 
30 -41.22 -53.1794 -133.77 -47.0857 -175.01 0.263028 8.84739 9.91245 0.0040016 
42 -38.2711 -77.5328 -72.2698 -71.1737 -31.1847 25.4046 0.631866 22.7475 4.91378 
46 66.8722 82.3003 38.6829 51.8779 -56.4333 -165.439 2.36651 2.62005 -7.68163 
58 149.58 -33.7786 54.3277 72.4465 199.667 64.329 3.85122 19.9503 -10.6804 
62 -103.149 154.402 -68.6552 83.3734 -68.5463 54.0667 9.25821 12.8915 -3.13185 
74 33.0355 65.1976 -116.309 58.674 -73.1968 -94.0323 -13.0995 7.9128 -1.12345 
78 18.4179 138.043 40.9537 -21.7892 -135.948 -22.4272 7.96567 19.1524 -3.92191 
90 97.4829 30.8079 157.222 -114.273 -58.621 154.193 3.61624 8.59324 2.41435 
94 66.7803 -160.389 18.5767 -58.1931 -36.0642 56.3819 -9.92092 8.9905 -2.07116 
106 71.8698 94.9584 13.1015 -12.5863 22.8024 -34.7272 11.4129 24.8423 -0.548761 
110 14.1469 16.7157 -51.787 -88.4656 9.52187 7.04654 -9.07632 22.0142 -11.8986 
122 -134.06 -38.0299 34.3637 20.3954 152.774 10.1757 -3.45453 10.1908 4.20513 
126 -141.913 34.4259 20.3735 10.1702 23.8498 -63.5383 0.123164 -0.179961 -3.56596 
12 -92.5761 13.278 -4.34338 121.106 33.0548 -116.581 8.20829 8.09716 -2.27669 
16 1.79012 4.31031 -11.8256 71.5153 -253.612 108.029 6.84859 21.4154 -21.5956 
28 106.909 62.1621 104.158 -57.0802 -92.8619 -79.6661 -0.813412 6.71395 -9.46587 
32 -105.375 -27.1174 -90.0963 -21.7516 72.4291 -156.099 1.72084 8.1194 -11.7646 
44 43.5212 93.1449 126.133 -83.1795 142.486 210.598 13.9901 18.7134 -10.5171 
48 79.717 142.866 3.02918 61.1046 55.8181 22.7772 0.0534672 26.1286 -1.88405 
60 3.0429 -45.5091 62.0589 -247.134 124.203 -122.034 8.1848 1.67453 -13.9361 
64 -22.7428 -103.275 -13.696 -11.8177 -69.0704 63.6994 1.50561 13.7844 -5.84733 
76 88.9845 -170.613 -38.2317 -26.1223 -59.9348 105.562 6.5756 0.277452 1.81633 
80 -90.6343 -35.1785 -67.7242 -88.6139 61.9717 10.089 6.13715 16.1352 -13.4691 
92 7.84839 52.1738 48.8647 45.3597 -71.6037 78.7839 5.68906 10.6313 -6.77541 
96 32.5463 96.5413 -10.5326 24.1292 -87.6482 -49.3836 -5.50345 4.24632 -1.81924 
108 -194.616 20.6055 78.7192 106.258 -17.6526 -28.6323 9.60821 22.0935 11.6949 
112 -88.8334 38.9997 -63.812 -20.381 98.1627 -134.203 24.0522 14.1963 1.54424 
124 35.3174 4.21506 22.3204 9.02891 36.1236 206.206 -4.60834 7.56875 9.10334 
128 42.4358 -93.7874 -18.2132 91.1907 -29.6817 26.1632 -8.20194 25.5344 -12.4054 
140 -99.736 55.2768 29.5965 101.575 117.529 -9.1155 2.13063 6.51233 2.15352 
144 -22.0843 146.396 67.0622 153.875 -33.9112 111.26 7.60919 24.4173 -10.3171 
156 -1.90097 -40.3453 -181.342 -106.401 -71.8439 20.2383 -1.33224 13.0406 5.78131 
160 -88.6512 71.7837 -55.7107 40.0346 -17.1208 -49.9285 1.48291 21.4876 -3.8246 
172 -42.4315 88.0908 41.0064 -2.45605 46.5555 130.854 0.682562 2.09502 -6.80501 
176 58.8596 -10.1844 114.315 46.0283 -77.2931 -11.2811 6.90319 12.639 -15.4614 
188 26.8818 136.702 101.312 -0.66844 -41.413 -81.358 -10.5887 10.8387 8.35561 
192 54.3138 -42.8808 8.9525 -106.24 100.838 -63.9671 -2.66855 5.77885 -4.49547 
204 15.4859 -111.572 -53.211 -18.9795 -22.6363 -71.5364 10.6953 27.7102 -3.73915 
208 103.156 -105.002 30.6316 -35.2951 -6.32966 42.6631 9.74155 6.88951 -19.612 
220 29.3753 -12.567 42.8438 -63.6044 141.127 13.0835 9.01281 12.0898 12.5963 
224 133.685 178.076 16.2832 -65.4855 -122.503 30.0828 0.985757 6.05224 2.33105 
236 30.4538 -78.2741 98.1975 21.1415 56.5387 -260.811 9.30067 25.006 6.89222 
240 89.6376 22.4669 -37.0858 -4.64886 69.2278 101.708 17.7407 13.4447 1.32863 
252 -34.2211 147.197 -85.6236 137.775 -0.24819 -59.7621 -6.03767 3.88472 0.381792 
256 -46.6689 39.5273 77.6457 -52.6802 36.2556 15.8193 4.21591 17.9318 -10.0235 
139 -24.6876 17.833 21.8777 66.1888 -36.1941 -190.149 15.8581 14.2035 -4.6664 
143 99.0903 57.9933 -71.4578 -57.5819 -97.154 -60.6595 6.91365 1.2566 -6.1098 
155 -14.9362 95.2167 -67.6505 -16.5413 -148.808 -87.5416 -3.53135 26.4683 -1.43757 
159 -42.3407 -83.7149 50.2682 -103.581 -112.105 1.07428 4.24211 0.697637 -1.55029 
171 -16.4481 128.613 54.4403 -89.1701 80.1322 -49.5649 -9.42997 13.1194 8.58534 
175 57.5974 -216.6 79.4397 144.213 165.32 -38.876 3.13498 20.7551 3.62443 
187 -5.22907 25.8109 -165.993 17.9779 194.034 -64.3754 6.43456 3.16332 -12.5153 
191 -110.376 123.381 40.7502 46.9982 -23.1323 -14.205 13.9751 12.8004 -8.77642 
203 86.3541 61.8534 46.4497 94.7072 86.5479 -137.359 3.99671 2.15117 -13.8142 
207 -61.7324 -50.3473 58.4929 180.542 -60.0943 -131.456 -10.9817 -1.74589 4.72298 
219 -44.3446 -77.2112 -125.688 58.3491 -87.1538 -38.7193 5.97789 1.12539 -5.76102 
223 -21.2802 -63.935 -90.6136 53.5393 -128.698 1.7916 -6.80034 1.64027 -6.79764 
235 -282.562 4.54305 -93.9279 173.65 54.427 -87.7672 -5.41593 7.51844 -3.95695 
239 -30.2822 -20.6612 -1.84909 32.2084 150.193 -72.9738 4.26397 -0.844767 -5.29021 
251 54.7245 -68.6027 0.0455997 70.0856 56.2557 68.6052 -4.03442 17.641 -0.856152 
255 -12.0145 86.6799 89.3744 -197.185 104.565 -63.0674 1.37508 -2.24831 -5.10621 
137 -104.407 0 -183.224 0 34.1505 0 8.42724 17.7327 2.37706 
141 81.969 162.177 110.065 57.6246 77.7006 -126.718 -3.73002 21.8332 -6.71727 
153 48.4146 50.5376 -145.927 48.3769 -61.427 -50.9626 -2.72253 8.03064 -5.03789 
157 -33.2449 150.228 97.6467 45.4879 -142.549 -85.5686 10.2455 18.1419 0.261163 
169 120.721 49.8501 -89.7836 98.3807 -208.545 55.1087 -6.92023 -1.66373 -17.704 
173 -109.521 33.902 -3.34516 -36.8327 5.81872 -53.4409 6.55897 15.5918 -6.31284 
185 -184.953 12.0029 -97.2444 -87.7997 71.4259 88.7573 15.0476 12.5052 -14.0733 
189 -89.1105 154.713 -94.3223 109.241 -79.3746 84.5248 3.03215 8.73376 -2.09003 
201 -7.35876 0.43729 82.6569 -187.101 -92.7737 -24.602 14.3396 10.8281 11.3425 
205 13.2961 61.8667 166.155 -34.2568 70.6612 -28.1223 -1.8254 13.8014 9.47329 
217 50.8245 -36.3783 -30.1625 74.8663 26.0256 110.475 2.47959 -0.810409 6.13014 
221 70.6871 42.4302 -48.323 -98.2961 -62.5359 16.1914 3.90306 16.7849 -18.27 
233 18.2663 -93.8192 18.7496 -98.6193 -108.603 88.7571 19.7908 9.51725 3.98876 
237 -78.9076 -129.688 114.672 113.757 -109.673 -64.7429 6.50575 12.8997 14.0523 
249 -65.8109 -41.4314 -13.2779 -60.1387 4.61202 -70.3374 9.66475 18.1668 2.51611 
253 144.822 35.9469 113.806 30.1197 15.6036 32.6694 8.74418 7.03144 7.43091 
138 -67.1059 25.76 94.4395 -34.4242 -107.63 -73.1494 -4.29513 4.30906 10.2246 
142 96.4123 -17.6749 -3.0402 -18.3626 -17.1096 81.0483 5.91732 14.4193 4.35557 
154 227.205 -125.976 -15.5578 -6.53504 -16.7851 42.2886 -7.73107 -7.02064 -3.05851 
158 -64.2685 -47.4135 -20.1533 36.1278 -53.683 59.7192 3.19488 13.7017 3.99382 
170 159.229 55.0124 170.286 16.5117 60.9712 168.452 9.68198 6.07898 1.83421 
174 -120.978 43.8695 -37.9807 41.9024 -14.3326 13.1815 1.57376 8.6977 11.7512 
186 116.549 23.3671 39.7206 45.8814 -34.4946 -120.452 9.11167 16.5324 2.60055 
190 161.606 -46.4636 66.1984 151.186 38.4214 31.2453 -2.41151 19.1469 2.20775 
202 20.8234 -50.8538 -113.49 -21.3621 45.0575 -29.4771 6.97643 10.364 -10.2195 
206 18.7346 -9.7137 -100.358 -64.6249 -26.9624 -85.0477 1.50538 8.67909 -1.98846 
218 52.2133 -124.331 80.2766 -130.729 10.3258 12.89 -2.21113 16.8636 -5.11519 
222 20.5156 113.657 -13.095 -138.415 87.5592 -5.24643 12.1403 2.19198 -14.9652 
234 35.309 -1.93961 -278.494 18.3151 -74.0578 -117.471 11.0982 15.2265 -3.67174 
238 -27.7619 -24.7397 137.728 204.212 171.628 -16.3926 16.1842 26.7424 1.86651 
250 -64 39.5513 30.8809 35.4152 -27.5371 -43.0434 7.65092 13.8096 -15.5971 
254 -37.5232 -75.5341 10.4945 210.444 178.342 -17.9887 11.5734 15.3102 -4.13784 
