ITEM: TIMESTEP
0
ITEM: NUMBER OF ATOMS
5000
ITEM: BOX BOUNDS pp pp pp
0 1e-05
0 1e-05
0 1e-05
ITEM: ATOMS id type x y z vx vy vz 
0 1 8.84703e-06 7.86929e-06 6.62358e-06 0.444999 0.699255 1.16438 
1 1 3.32929e-06 8.21089e-06 9.22079e-07 0.595242 0.931065 1.68307 
2 1 3.44435e-06 3.95686e-06 8.31037e-06 0.599918 0.484067 1.61048 
3 1 1.5357e-06 6.01024e-06 8.2837e-06 1.21655 1.22432 1.04439 
4 1 1.51521e-06 4.53702e-06 5.80664e-06 0.534845 0.787126 1.54296 
5 1 1.61612e-06 4.53051e-06 3.35014e-06 0.582313 1.39612 0.979496 
6 1 1.92575e-06 3.58896e-07 7.62648e-06 0.793752 0.949524 1.01552 
7 1 1.52353e-06 4.50577e-06 3.6471e-06 0.436606 0.603367 0.751182 
8 1 4.93006e-06 2.00344e-06 5.60514e-06 0.595983 0.753174 1.61005 
9 1 2.70188e-06 3.46122e-07 9.43149e-06 1.15412 1.00701 0.563092 
10 1 2.65914e-06 1.72397e-06 7.1735e-06 1.40081 0.706726 1.24102 
11 1 7.51185e-06 3.71962e-07 6.59247e-06 0.24591 1.43806 0.719555 
12 1 5.47738e-06 1.54399e-06 6.66524e-07 1.80588 1.27014 0.508898 
13 1 2.6772e-06 9.52274e-06 6.774e-06 0.206269 0.917941 1.61547 
14 1 2.6011e-06 5.52948e-06 7.51869e-06 0.915473 0.965944 1.35858 
15 1 9.54567e-06 8.10173e-06 1.26517e-06 1.24363 1.02092 1.09209 
16 1 7.85185e-06 8.17987e-06 9.26135e-06 1.11806 1.01248 0.690281 
17 1 3.98247e-06 8.04892e-06 9.43575e-06 0.628518 0.77468 0.757942 
18 1 3.18855e-06 8.09298e-06 3.76444e-06 0.85228 1.55802 1.02231 
19 1 6.45871e-06 8.52526e-06 5.24931e-06 0.777802 0.878766 1.4473 
20 1 5.57295e-06 6.3332e-06 1.77828e-06 0.68503 0.780853 0.460046 
21 1 2.56712e-06 3.58296e-06 7.36601e-06 0.370471 0.815595 0.541495 
22 1 8.95364e-06 8.39507e-06 4.05532e-06 1.62777 1.11832 1.00248 
23 1 5.555e-06 5.89532e-06 3.35953e-06 1.01737 1.52796 0.710056 
24 1 9.17692e-06 1.48495e-06 8.22009e-06 1.72873 0.992883 0.753763 
25 1 2.29769e-06 4.05402e-06 3.11225e-06 1.19646 1.15581 1.45285 
26 1 6.331e-06 4.34105e-07 7.74512e-06 0.603669 0.887858 1.61973 
27 1 2.29974e-06 5.90005e-06 8.12993e-06 0.960867 1.30621 0.536424 
28 1 9.90621e-06 4.46103e-06 7.20379e-06 0.285995 0.943918 0.947541 
29 1 6.06017e-06 5.68705e-06 7.62641e-06 1.55957 0.520382 1.35195 
30 1 9.65729e-06 5.52364e-06 5.65215e-06 1.43248 1.17541 1.10372 
31 1 9.26115e-06 8.80081e-06 1.1794e-06 0.477888 0.701014 1.50851 
32 1 7.89408e-06 8.30503e-06 8.27455e-06 0.724502 0.877176 1.12707 
33 1 8.25745e-06 7.39163e-06 8.3528e-06 0.501883 0.682237 0.74514 
34 1 7.67011e-07 7.81618e-06 9.67768e-07 0.587323 1.41767 1.42221 
35 1 3.18011e-07 3.47433e-06 3.90238e-06 0.507227 1.34131 0.297441 
36 1 1.40443e-06 1.80319e-06 1.9502e-06 1.21055 1.19347 0.970098 
37 1 4.71339e-06 8.56722e-06 2.93086e-06 0.53014 0.878037 0.733305 
38 1 3.32453e-06 5.59497e-06 6.66975e-07 1.12233 0.859519 0.901545 
39 1 8.77079e-06 1.57921e-06 8.83085e-06 1.22279 1.3994 1.00144 
40 1 7.75927e-06 4.21665e-06 3.1875e-06 0.79088 1.20673 0.67493 
41 1 2.12903e-09 7.93056e-06 7.41883e-06 0.623924 0.850298 0.786548 
42 1 9.79587e-07 6.99877e-06 8.5768e-06 1.02269 0.591042 1.06215 
43 1 6.70275e-06 5.92324e-06 3.36093e-06 0.86315 0.544253 1.28463 
44 1 8.69503e-06 3.82365e-06 9.90893e-06 1.16612 0.432854 0.745384 
45 1 3.89131e-06 4.08966e-06 2.87152e-06 0.927911 0.909688 0.614837 
46 1 3.49511e-06 9.91841e-06 7.70595e-06 1.10747 1.20418 1.76891 
47 1 3.07452e-06 8.08332e-06 4.85557e-06 0.622854 2.07737 1.03078 
48 1 3.78442e-06 9.6301e-06 7.66334e-06 0.313636 0.662097 0.723255 
49 1 6.08873e-06 8.91759e-06 1.35102e-06 0.628285 0.763463 1.04681 
50 1 7.48201e-06 4.78868e-06 2.38859e-06 0.747418 0.536635 0.993984 
51 1 6.325e-06 4.65081e-06 1.06711e-06 0.595001 1.23933 1.0341 
52 1 2.37513e-06 5.31901e-06 4.80463e-06 0.814461 0.47735 1.02284 
53 1 8.84829e-06 9.34711e-06 7.37504e-06 0.604698 0.622367 1.35985 
54 1 2.05238e-06 5.87314e-06 1.85472e-06 0.986635 0.972235 0.929572 
55 1 3.42674e-06 6.63861e-06 1.97635e-06 0.874027 1.18251 0.832192 
56 1 5.229e-06 8.9931e-06 8.04838e-06 1.1563 1.52554 1.03682 
57 1 3.99629e-06 3.83521e-07 2.34078e-07 0.466576 0.790455 0.755671 
58 1 5.77567e-06 3.21948e-06 4.20608e-06 0.350581 0.943636 0.610558 
59 1 6.56271e-06 6.60145e-07 6.68905e-06 0.563813 0.603148 0.988688 
60 1 5.29164e-06 3.86339e-06 2.39797e-06 0.812156 0.733414 1.00757 
61 1 7.34117e-06 2.92373e-06 2.34736e-06 0.92746 0.615206 2.10745 
62 1 7.16172e-06 2.03647e-06 6.6849e-06 1.43478 0.787916 0.776365 
63 1 7.70541e-06 6.30157e-06 5.9414e-06 1.41754 1.46167 1.17919 
64 1 1.69028e-06 1.96655e-06 4.05382e-06 0.646108 0.356485 0.437688 
65 1 1.73437e-06 4.90312e-06 7.93281e-06 0.674874 0.423964 0.209939 
66 1 3.09336e-06 9.79605e-07 7.48315e-06 0.886003 0.570117 1.30083 
67 1 1.43513e-06 4.87174e-06 8.42437e-07 0.627911 0.657121 1.23866 
68 1 8.82262e-06 1.42905e-06 5.02825e-07 0.342318 1.13721 0.184045 
69 1 5.03359e-06 4.87414e-06 9.42027e-06 1.34583 0.817425 0.809009 
70 1 6.06811e-06 3.97163e-06 2.79377e-07 0.780501 1.13098 1.22548 
71 1 8.81263e-06 9.14914e-06 3.45298e-06 1.62976 0.497722 1.27773 
72 1 6.71884e-06 5.49852e-06 6.41868e-06 0.767728 0.847551 0.679369 
73 1 3.096e-06 3.94216e-06 5.03775e-06 0.662015 0.892185 0.901987 
74 1 3.29754e-06 9.22428e-07 9.36683e-06 0.60504 0.510093 0.74749 
75 1 3.71078e-06 7.29865e-06 1.53487e-06 0.678975 1.03957 1.13133 
76 1 1.31752e-06 7.19206e-06 2.14246e-06 1.30501 1.16407 1.24722 
77 1 5.06934e-06 5.00559e-06 7.72192e-06 0.605703 0.432032 0.431819 
78 1 5.25381e-06 5.87421e-06 2.12651e-06 0.850015 0.651879 0.891919 
79 1 9.47823e-06 8.77944e-06 6.38581e-06 0.838969 0.79557 0.313454 
80 1 1.50788e-06 2.40473e-06 6.36865e-06 1.01863 0.837637 1.53708 
81 1 6.93867e-06 2.43459e-07 4.26794e-06 0.624303 1.8268 1.19458 
82 1 5.20141e-06 8.20155e-06 9.15681e-06 0.717669 1.21273 0.897027 
83 1 2.51714e-06 4.80888e-06 2.78553e-06 0.290231 0.922288 1.36757 
84 1 2.4874e-06 4.95974e-06 6.89481e-06 0.31273 1.25139 0.979877 
85 1 1.66011e-06 5.15727e-07 2.87252e-07 0.75247 0.602558 1.39331 
86 1 7.47029e-06 4.15001e-06 7.12878e-06 0.482632 1.26455 0.485976 
87 1 9.63852e-06 3.87942e-06 1.16203e-06 0.445505 0.698792 0.495345 
88 1 9.11834e-06 7.55931e-06 8.1924e-06 1.03103 0.731609 1.45952 
89 1 9.15839e-06 8.79603e-06 4.26524e-06 0.515642 1.16714 1.17743 
90 1 2.28476e-06 1.44462e-06 6.7842e-06 1.26793 0.732511 1.01501 
91 1 4.26372e-06 5.52866e-06 5.22092e-06 1.77251 0.507651 0.591314 
92 1 4.98797e-06 3.50484e-06 6.93735e-06 1.14195 0.665837 1.17625 
93 1 8.73991e-06 4.24352e-06 8.97837e-06 1.47404 1.00698 0.843047 
94 1 5.60745e-06 4.66075e-06 1.24754e-06 0.930021 0.838988 1.00064 
95 1 6.54113e-06 5.84925e-06 4.76723e-06 0.784076 1.42082 0.496101 
96 1 6.53832e-06 9.63634e-06 2.74791e-06 1.41361 0.64584 0.681504 
97 1 6.11367e-06 5.16439e-06 9.44196e-07 0.964986 0.815333 0.560907 
98 1 7.27753e-06 7.03997e-06 6.64765e-06 0.723645 0.796398 0.876275 
99 1 8.0094e-07 3.98948e-06 2.86543e-06 1.00538 0.297786 0.369232 
100 1 2.146e-06 4.92771e-06 8.32469e-06 1.03659 0.935908 1.77223 
101 1 1.4818e-06 7.44583e-06 2.41248e-06 0.770117 0.770687 0.733977 
102 1 4.85488e-06 6.81284e-06 4.68002e-06 1.31156 0.70264 0.962589 
103 1 5.48458e-06 9.17241e-06 7.67838e-06 0.753068 1.12914 0.838405 
104 1 2.08902e-06 2.60652e-06 6.00369e-06 1.2472 1.25092 1.18466 
105 1 8.47546e-06 2.99044e-06 4.72961e-06 1.2915 1.00844 0.901951 
106 1 6.02353e-06 4.37002e-06 8.3103e-07 0.47376 0.824835 0.510374 
107 1 7.56004e-07 5.39977e-06 8.8154e-06 1.41082 1.14695 1.51864 
108 1 2.97809e-06 8.81336e-06 8.65497e-06 0.625821 1.21146 1.37644 
109 1 5.31136e-06 9.42603e-06 2.24194e-06 0.518043 1.05629 1.29084 
110 1 6.58199e-06 8.44533e-06 4.38711e-06 1.11435 0.864928 1.15843 
111 1 9.10542e-06 7.10422e-06 5.82289e-06 0.730134 0.713918 0.564842 
112 1 1.85732e-06 7.94094e-06 7.12477e-06 1.30922 1.07812 1.08171 
113 1 9.68602e-06 2.3826e-06 5.56919e-06 1.0113 1.30509 0.654931 
114 1 7.33881e-06 1.72036e-06 7.13335e-06 0.426355 0.55045 0.788414 
115 1 5.20159e-07 4.97714e-06 7.13439e-06 0.280738 0.687061 0.65722 
116 1 5.83583e-06 4.10133e-06 3.31561e-06 1.13182 0.831345 1.16665 
117 1 8.61322e-06 9.69268e-06 4.29478e-06 0.984603 0.879499 1.43469 
118 1 7.04035e-06 1.3348e-06 9.52503e-06 0.770785 0.734809 1.1944 
119 1 5.22505e-06 6.96467e-06 1.88532e-06 1.04522 1.10104 0.685153 
120 1 6.94058e-06 9.2564e-07 2.35958e-06 0.47208 1.15676 0.374668 
121 1 1.35001e-06 7.43685e-06 4.03537e-07 0.820329 1.33273 0.729226 
122 1 8.38401e-06 4.39728e-06 1.07031e-06 0.762669 1.62695 0.601942 
123 1 5.70196e-06 5.03417e-06 2.7612e-08 1.33632 1.00344 0.165199 
124 1 6.01414e-06 2.6956e-06 6.54921e-06 0.604586 0.56922 1.11074 
125 1 4.80546e-06 7.36915e-06 9.271e-06 0.888933 0.696682 0.715825 
126 1 2.16975e-06 9.2593e-06 6.27376e-06 1.12345 0.591708 0.799449 
127 1 2.00416e-06 8.24941e-07 4.88456e-06 0.569957 1.43446 0.988714 
128 1 4.58093e-06 8.1706e-06 2.88384e-06 0.872574 0.474442 1.13991 
129 1 3.21464e-06 4.90569e-06 7.59999e-06 0.728858 1.48804 0.853591 
130 1 8.27625e-06 9.07369e-06 5.9181e-06 1.01232 2.33038 0.845066 
131 1 1.60958e-06 4.50503e-06 1.41815e-06 0.68377 0.454795 0.700106 
132 1 7.32609e-07 7.42281e-06 8.68016e-06 0.455407 1.03924 0.444067 
133 1 4.10733e-07 1.71944e-06 2.80318e-06 0.956028 0.668735 1.1856 
134 1 9.52626e-07 3.92006e-06 6.78314e-06 0.667088 0.933988 1.30634 
135 1 7.76424e-07 8.24178e-06 5.19231e-06 0.483345 1.01412 0.544597 
136 1 4.05453e-07 1.42386e-07 4.99422e-07 0.192815 0.534445 0.480457 
137 1 5.1861e-06 3.08133e-06 8.28806e-06 0.416905 1.42394 0.800774 
138 1 9.40847e-06 5.06426e-06 1.98887e-08 0.84704 0.765502 1.40429 
139 1 7.73374e-06 6.88978e-06 3.78689e-06 1.09413 0.404097 0.508448 
140 1 1.92817e-06 2.44728e-06 8.52639e-06 0.921112 1.06489 1.08566 
141 1 7.51728e-06 5.86518e-06 4.17707e-06 0.834272 1.05129 0.823351 
142 1 3.08545e-06 3.48758e-06 7.45782e-06 0.672323 1.59186 0.482383 
143 1 5.39673e-06 5.81314e-06 8.22335e-06 1.31631 1.71588 0.559323 
144 1 1.08775e-06 9.36591e-06 2.38346e-06 0.817773 0.693757 0.491623 
145 1 2.12388e-06 8.86695e-06 4.13779e-06 1.55366 0.730321 0.28974 
146 1 6.47894e-06 8.02995e-06 3.72625e-06 0.571493 0.842664 1.10977 
147 1 5.46523e-06 9.69292e-06 9.22691e-06 1.1403 1.02521 0.425908 
148 1 6.63198e-07 3.31001e-06 9.94029e-07 0.415971 1.0257 0.744452 
149 1 7.53751e-06 4.0024e-06 4.39187e-06 1.11576 0.87792 1.41639 
150 1 3.70612e-06 1.80104e-06 9.73421e-06 0.629178 1.45736 1.54166 
151 1 1.79656e-06 5.57471e-08 1.55043e-06 0.426676 0.554787 1.18621 
152 1 7.48466e-06 3.02338e-06 4.89755e-06 0.976999 1.0221 0.707297 
153 1 3.61444e-06 9.38271e-06 9.13565e-07 0.775645 0.732462 0.607047 
154 1 9.61845e-06 6.09389e-06 5.80284e-06 1.36131 1.25058 0.294759 
155 1 9.75948e-06 7.42391e-06 6.34895e-06 0.58774 1.40892 1.25467 
156 1 8.03005e-06 9.54234e-06 2.36413e-06 1.25805 1.30883 0.811778 
157 1 3.21712e-06 7.12922e-06 3.70105e-06 0.378941 1.28027 0.659686 
158 1 7.76509e-06 6.51735e-06 3.75603e-06 1.34997 0.908161 0.697902 
159 1 9.80976e-06 9.81815e-06 4.17176e-06 0.948797 1.22731 0.891122 
160 1 3.59797e-06 5.39411e-06 5.35351e-06 0.885184 0.587531 1.0039 
161 1 4.12577e-06 7.52563e-06 8.51458e-06 0.653455 0.66209 0.917519 
162 1 1.10963e-06 1.47411e-07 4.17455e-06 0.22826 0.641468 0.568319 
163 1 9.69909e-06 2.02826e-06 1.35941e-06 0.923429 0.91278 0.782171 
164 1 6.85372e-06 7.38061e-06 1.59881e-07 0.514834 0.528491 0.649893 
165 1 4.82656e-06 2.20688e-06 8.37136e-06 0.763134 1.10625 0.434154 
166 1 7.81695e-06 7.23913e-06 1.05305e-06 1.21524 1.04093 0.633781 
167 1 7.1022e-06 7.54164e-06 9.76526e-06 0.668969 1.0923 1.26735 
168 1 6.22548e-06 8.16648e-06 9.02565e-06 0.790851 0.954482 1.33553 
169 1 9.79501e-06 2.45125e-06 5.73673e-06 0.867481 0.272602 1.30306 
170 1 3.96169e-06 8.27611e-06 7.72923e-07 1.1155 0.509453 0.74192 
171 1 9.04994e-06 6.19097e-06 9.82464e-06 1.02554 0.599367 0.873 
172 1 1.4495e-06 5.0414e-06 8.98753e-06 1.15377 0.58766 0.611135 
173 1 4.50318e-06 4.63721e-06 7.28538e-06 0.664805 0.789789 0.710107 
174 1 4.43615e-06 3.8019e-06 6.76344e-07 1.05988 0.558983 1.7402 
175 1 9.2459e-06 9.63691e-06 4.48704e-06 0.712068 1.39702 0.823673 
176 1 9.14998e-06 8.83351e-06 7.25346e-06 0.73591 0.518193 0.132461 
177 1 9.76316e-06 3.81166e-06 3.29456e-06 0.832326 0.955175 0.440732 
178 1 9.49617e-06 9.67253e-07 6.20703e-06 0.855847 0.420923 0.590803 
179 1 3.05198e-06 3.90904e-06 7.72221e-06 1.02794 1.00559 0.53231 
180 1 5.03147e-06 5.64812e-06 2.06432e-06 1.62145 0.743237 0.668491 
181 1 2.2827e-06 9.74757e-06 6.36898e-06 0.541092 1.08942 1.2005 
182 1 4.72621e-06 4.31828e-06 7.75318e-06 1.45722 0.420595 0.373274 
183 1 5.16435e-07 5.31354e-06 2.01034e-07 0.778495 0.929133 0.948804 
184 1 7.19703e-06 3.01475e-06 2.06045e-06 1.23163 0.771758 0.835185 
185 1 7.48965e-06 9.39885e-06 9.07638e-06 0.771121 1.23515 1.91892 
186 1 6.76265e-06 6.90023e-06 8.06355e-06 1.39021 0.571082 0.795717 
187 1 7.10494e-06 6.474e-07 1.71769e-06 1.5206 1.33848 1.41782 
188 1 5.74393e-06 6.32738e-06 5.61923e-06 0.463913 0.733415 1.3932 
189 1 3.06846e-06 2.57498e-06 3.45428e-06 1.08425 0.604598 0.767525 
190 1 9.43575e-06 2.07079e-07 6.27446e-06 1.83538 0.957801 0.627337 
191 1 8.16734e-06 4.99735e-06 5.41188e-06 1.16831 0.332876 0.64997 
192 1 5.54679e-06 9.88148e-06 4.03615e-06 1.14774 0.963664 0.903988 
193 1 6.61423e-06 7.18303e-08 6.27145e-07 1.52254 0.836652 1.12308 
194 1 4.41008e-06 3.30832e-06 4.74281e-06 0.976099 0.765889 0.849936 
195 1 8.48722e-06 6.32869e-06 9.36886e-06 0.386216 1.20707 0.624584 
196 1 4.18449e-06 3.95463e-06 8.07995e-06 1.83666 0.780221 0.451843 
197 1 9.71066e-06 4.43407e-06 9.39385e-06 0.516699 0.491777 0.726532 
198 1 3.58925e-06 9.0101e-06 2.62695e-06 0.527552 0.608875 1.08828 
199 1 7.17461e-06 5.06247e-06 4.87444e-06 0.380848 1.38412 0.845062 
200 1 7.21121e-06 1.67121e-06 1.49001e-06 0.503204 1.14287 1.41249 
201 1 7.70624e-06 8.7549e-07 3.82261e-06 0.854249 0.403137 0.473128 
202 1 1.78824e-06 5.52413e-06 6.5008e-06 0.730944 1.91608 0.389021 
203 1 3.36985e-06 3.46902e-07 6.19631e-06 0.97904 1.14736 1.57434 
204 1 7.02676e-06 9.3668e-06 4.57812e-08 0.311482 1.0852 0.91768 
205 1 6.11448e-06 7.35858e-06 6.99899e-06 0.75518 1.10553 0.723273 
206 1 7.15993e-06 5.72963e-06 1.40097e-06 0.926254 0.921041 0.870107 
207 1 3.75747e-06 6.35356e-06 9.9796e-06 1.28294 0.968662 0.848924 
208 1 7.28015e-06 9.66642e-06 3.05269e-06 1.0755 0.28364 1.00889 
209 1 6.45476e-06 5.32229e-06 5.89364e-06 1.41255 0.955815 1.28008 
210 1 2.12215e-06 2.07667e-06 2.78913e-06 0.772221 0.841029 0.689967 
211 1 3.81427e-06 5.30246e-06 7.62795e-06 1.04934 1.29417 0.614151 
212 1 4.46239e-06 8.44382e-06 1.61968e-06 0.57252 1.35891 0.974218 
213 1 6.20861e-08 6.07072e-06 3.65196e-06 1.02214 0.676134 1.23769 
214 1 8.58633e-06 5.50375e-07 1.03898e-06 0.797254 1.07763 1.19014 
215 1 9.00119e-06 5.00241e-07 3.41966e-06 0.63771 0.309826 0.949286 
216 1 7.62115e-06 1.17229e-07 5.29251e-06 0.987328 0.338232 0.894729 
217 1 2.85668e-07 6.38972e-06 3.80311e-06 1.38723 0.751729 0.765126 
218 1 1.49284e-06 4.20381e-06 1.86191e-06 0.607975 1.03383 0.877987 
219 1 1.22298e-06 9.45313e-06 4.80229e-06 0.410548 0.787309 0.577196 
220 1 3.45708e-06 7.56082e-06 6.48403e-06 1.29807 0.989828 0.661642 
221 1 3.39292e-06 8.88927e-07 5.6398e-06 1.13307 1.36449 1.34366 
222 1 5.40888e-06 9.6069e-06 7.96678e-06 0.753902 1.2613 0.279178 
223 1 9.19624e-06 7.48029e-06 6.8913e-06 0.655966 0.484781 0.721707 
224 1 6.51069e-06 4.75206e-07 9.11316e-06 1.40528 0.240842 0.434637 
225 1 1.02926e-06 4.30192e-06 5.44124e-06 1.62678 0.86883 0.366999 
226 1 5.90378e-06 2.18664e-06 5.17961e-06 0.405109 1.07884 1.17377 
227 1 6.26655e-06 5.35086e-06 6.91204e-06 0.887269 1.06295 0.363528 
228 1 1.38274e-06 1.79297e-06 6.30329e-06 0.859962 0.333774 1.02246 
229 1 3.41948e-06 7.58271e-06 1.75131e-06 0.560739 0.996282 0.5806 
230 1 1.90169e-06 9.16272e-06 2.6318e-06 1.36131 0.572208 0.731509 
231 1 8.98134e-06 8.06719e-06 7.6516e-06 1.39067 1.2297 0.592149 
232 1 2.87076e-06 6.54833e-06 4.72722e-06 0.673061 0.53219 0.403722 
233 1 4.66179e-06 2.90869e-06 7.3243e-06 1.08646 1.20091 0.809419 
234 1 7.98197e-06 7.11173e-06 9.07309e-06 0.563416 1.35483 0.611916 
235 1 8.73621e-06 2.53242e-07 3.66382e-06 1.07521 0.841514 1.05325 
236 1 4.65247e-07 6.4079e-06 5.48956e-07 0.43424 0.479167 0.595388 
237 1 7.37024e-06 5.80664e-06 3.49168e-06 1.47539 1.37645 0.650158 
238 1 2.68362e-06 1.60209e-06 7.49466e-06 1.02299 0.736598 0.603964 
239 1 8.69473e-07 1.10129e-06 4.50521e-06 0.948711 0.996619 1.37593 
240 1 7.06133e-06 9.1833e-07 7.54878e-06 1.74725 0.56673 0.866813 
241 1 5.0287e-06 7.04768e-06 2.47512e-07 0.851982 1.70749 1.2195 
242 1 5.50214e-06 2.27212e-06 8.54069e-06 0.753508 1.28133 1.17877 
243 1 1.29245e-06 2.72936e-06 9.05517e-06 0.584167 1.07588 0.889905 
244 1 1.49685e-06 3.74734e-06 2.18747e-06 1.15059 0.469695 0.442493 
245 1 3.55413e-06 5.04695e-06 3.34288e-06 1.43967 0.523578 0.325314 
246 1 8.78514e-06 3.33264e-06 5.15558e-06 0.412203 1.36039 0.652339 
247 1 8.61828e-06 2.47265e-06 6.34182e-06 0.541259 0.775308 0.909234 
248 1 8.80625e-08 3.20808e-06 2.19783e-06 1.00686 0.606015 0.824738 
249 1 7.72193e-06 2.49529e-06 1.08396e-06 0.765457 0.374324 0.466306 
250 1 3.47348e-06 1.25759e-06 5.31697e-06 0.332283 0.61603 0.893161 
251 1 5.07115e-06 9.65341e-06 5.65708e-06 1.26621 0.129643 0.391121 
252 1 7.18633e-07 1.51637e-06 1.32955e-06 0.428979 0.494248 0.301759 
253 1 5.3225e-06 4.04979e-06 4.49428e-06 1.30503 0.768866 0.70686 
254 1 9.28674e-06 4.92406e-07 6.96781e-06 1.21294 0.665107 0.725172 
255 1 3.89721e-06 3.94062e-06 7.57213e-06 1.11906 0.98741 0.818292 
256 1 1.73916e-07 3.40694e-06 3.93531e-06 1.03744 0.898043 0.710678 
257 1 6.98485e-06 6.38336e-06 7.82553e-06 1.78651 1.23272 1.20308 
258 1 6.79338e-06 3.46315e-06 9.87512e-06 1.293 0.778496 0.876074 
259 1 9.02399e-06 7.6762e-06 4.3414e-06 1.21277 1.0913 1.43462 
260 1 4.64431e-06 5.54846e-07 5.46216e-06 0.493297 1.40549 1.5064 
261 1 1.32945e-06 6.39685e-06 9.23472e-06 0.886355 1.36081 0.786848 
262 1 1.56687e-07 7.5134e-06 5.51102e-06 0.977177 1.10208 0.852978 
263 1 5.05e-06 4.59874e-06 3.82545e-06 0.947146 0.944276 1.14929 
264 1 6.35613e-06 2.1821e-07 4.62393e-06 1.27603 1.34189 0.425619 
265 1 4.20941e-06 4.12522e-06 3.5956e-06 0.673602 1.11098 0.868473 
266 1 7.11232e-06 7.17491e-06 7.16228e-06 0.580575 0.898269 1.07229 
267 1 3.03635e-06 7.4037e-06 6.9297e-06 0.733814 1.29736 0.221828 
268 1 1.74048e-06 5.40032e-06 3.20885e-06 0.722755 1.2546 1.02724 
269 1 9.07408e-06 8.76185e-06 5.4828e-07 0.853113 1.65648 0.353627 
270 1 5.47984e-06 2.76704e-06 4.34048e-06 0.9613 0.314452 0.86843 
271 1 7.60182e-06 6.26184e-06 3.73095e-06 0.468745 1.02599 0.349091 
272 1 8.47402e-06 2.74288e-07 1.64453e-06 0.18334 0.773129 1.05734 
273 1 7.35521e-06 7.36262e-06 7.13051e-06 1.95591 0.689205 0.252469 
274 1 4.09628e-07 1.79028e-06 3.61374e-06 0.739627 1.21511 1.24555 
275 1 7.61297e-06 8.72915e-06 6.66026e-06 1.1383 1.15931 1.31402 
276 1 2.73407e-06 2.77285e-06 3.92749e-06 1.79893 0.506247 1.02935 
277 1 3.8054e-06 4.4457e-06 7.47297e-06 0.613127 1.11193 0.699881 
278 1 6.77091e-06 6.91383e-06 7.29084e-06 0.261445 0.687711 0.743095 
279 1 9.70715e-06 9.78214e-06 7.51585e-06 1.16635 0.765577 0.372005 
280 1 9.86604e-06 2.11714e-06 8.3207e-06 0.447648 0.600611 0.534967 
281 1 7.2443e-06 3.38282e-06 8.36078e-06 0.842052 0.903369 0.564237 
282 1 2.86839e-06 8.71699e-06 8.10135e-06 1.24397 0.256984 0.291079 
283 1 1.15029e-06 5.80248e-06 5.27422e-06 1.81617 0.608047 1.26892 
284 1 6.48363e-06 7.93417e-06 8.3152e-06 1.01691 0.955591 1.00001 
285 1 4.38342e-06 2.38963e-06 5.20164e-06 0.817898 1.1277 1.64011 
286 1 8.70923e-06 2.69726e-06 5.00876e-06 0.665744 0.595632 1.18262 
287 1 8.03775e-06 7.68318e-06 4.66776e-07 0.898443 0.427188 1.18006 
288 1 8.64085e-06 7.1468e-06 9.39247e-06 0.753256 0.999852 0.430378 
289 1 1.31026e-06 4.46808e-06 6.3733e-06 1.91127 0.966628 1.10841 
290 1 9.21457e-06 2.00338e-06 1.10068e-06 1.03065 0.608748 1.07086 
291 1 6.4847e-06 5.20522e-06 9.89843e-06 0.916395 0.769696 0.494049 
292 1 8.00284e-06 4.23215e-06 1.52392e-06 0.506712 0.702677 0.71283 
293 1 4.86789e-06 4.93009e-06 3.87737e-06 1.39309 1.09776 1.31045 
294 1 1.43228e-06 9.52033e-06 8.0709e-06 0.75408 0.477915 0.204034 
295 1 8.49238e-06 4.20506e-06 1.21288e-06 0.953807 0.482236 0.776355 
296 1 9.46194e-06 3.08056e-06 4.27288e-06 0.179421 0.545132 1.12425 
297 1 9.62431e-06 9.45995e-06 3.36994e-06 1.27668 0.505129 0.851722 
298 1 2.20078e-06 1.55154e-06 7.59325e-07 0.625352 0.795714 0.546871 
299 1 1.02117e-06 1.26733e-08 3.12183e-06 1.46016 1.60197 1.23169 
300 1 6.96907e-06 5.9825e-06 1.11679e-06 0.863939 1.51219 1.06409 
301 1 3.04844e-06 9.0369e-06 6.73502e-06 1.4008 0.519797 0.716876 
302 1 1.12723e-06 1.76415e-06 5.02073e-06 1.28336 0.726654 0.300382 
303 1 3.62456e-06 7.68841e-06 8.7678e-06 0.596535 0.778933 1.109 
304 1 4.8748e-06 7.6202e-06 4.29221e-06 0.802995 0.461434 0.356077 
305 1 3.01091e-06 4.43718e-07 8.33734e-06 0.736668 1.17908 1.13223 
306 1 2.65436e-06 6.55733e-06 8.38044e-06 0.813851 1.3394 0.741769 
307 1 9.76758e-06 3.76474e-06 8.81616e-06 1.20699 0.508335 1.07742 
308 1 1.36898e-06 2.94387e-06 3.97865e-06 0.681617 0.771716 0.917498 
309 1 9.11867e-06 7.69591e-06 1.12804e-06 0.498074 1.38845 0.820113 
310 1 4.0967e-06 9.4421e-06 6.24985e-07 0.752408 0.845644 0.605202 
311 1 2.23411e-06 8.34183e-06 6.13174e-06 0.852765 0.827077 1.17731 
312 1 8.90472e-06 6.00065e-06 3.97423e-06 0.997699 0.583689 0.831033 
313 1 2.27492e-06 4.44712e-06 7.62233e-06 1.01531 0.851317 1.46689 
314 1 3.26183e-06 3.36276e-06 3.60796e-06 1.35325 1.33918 0.409391 
315 1 8.06225e-06 2.72267e-06 2.1723e-06 0.401694 1.48158 1.63021 
316 1 5.25488e-06 3.06025e-06 9.43634e-06 1.21868 0.909823 1.04535 
317 1 9.8194e-06 6.66458e-06 4.32626e-06 0.338549 0.291122 1.32881 
318 1 5.17363e-06 8.81967e-07 3.02261e-07 0.872782 0.30562 0.678848 
319 1 4.57579e-07 5.03322e-06 4.95826e-07 1.36453 0.533378 0.701534 
320 1 4.30123e-06 2.19683e-07 3.32954e-06 1.49177 0.460248 1.06535 
321 1 9.10094e-07 2.04609e-06 4.35478e-06 0.711464 0.975742 0.912118 
322 1 7.96315e-06 5.65505e-06 9.30373e-06 0.835014 0.461583 0.185664 
323 1 2.5387e-06 8.8257e-06 4.23332e-06 0.715099 0.19789 1.85164 
324 1 1.19183e-06 7.24392e-06 7.04184e-06 0.384919 1.53136 0.910307 
325 1 7.48078e-06 4.6913e-06 4.74525e-06 1.35869 0.357809 0.70066 
326 1 9.00259e-06 6.34291e-06 9.65034e-06 0.916756 0.408971 1.16367 
327 1 1.32784e-06 8.67088e-06 6.76904e-06 1.1566 0.897235 1.39874 
328 1 8.00303e-06 3.71542e-06 9.71644e-06 1.11539 0.687187 0.778866 
329 1 8.51436e-06 3.5504e-07 9.08731e-07 1.30867 0.491131 0.606702 
330 1 7.22474e-06 5.61809e-06 1.32726e-07 1.3543 0.463718 0.316702 
331 1 5.34215e-06 8.22097e-06 6.19066e-06 0.759737 1.64671 1.41779 
332 1 9.0279e-06 8.49841e-06 2.85579e-06 1.35109 0.777049 0.878319 
333 1 5.80102e-06 4.94657e-06 3.39429e-06 0.598001 1.1739 0.798411 
334 1 4.08132e-06 3.81944e-06 4.575e-06 0.495592 0.892313 1.34125 
335 1 3.55603e-06 9.74914e-06 4.29096e-06 0.344018 0.22915 0.752829 
336 1 5.51507e-06 3.38337e-06 1.69502e-06 0.8492 1.27544 0.651476 
337 1 7.69225e-06 6.56904e-06 4.81943e-06 0.564904 0.732769 1.07094 
338 1 5.60969e-06 6.68081e-06 4.26759e-07 1.10759 1.15052 1.03628 
339 1 3.75934e-06 8.50248e-06 8.50326e-06 0.549089 0.700241 0.740507 
340 1 8.40428e-06 5.12371e-06 4.96527e-07 0.758124 0.823418 1.39931 
341 1 6.24576e-06 3.56097e-06 7.70648e-06 0.387637 0.768028 0.491412 
342 1 5.79453e-06 6.06557e-06 8.91971e-06 1.06233 1.09221 0.498825 
343 1 6.11034e-06 8.02186e-06 2.16774e-06 0.744337 0.566917 0.878507 
344 1 6.16918e-06 3.04146e-06 6.9372e-06 0.788769 1.30726 0.659631 
345 1 9.07722e-06 5.20988e-06 4.4935e-06 1.24472 1.23901 1.65715 
346 1 4.57789e-06 7.03239e-06 9.15163e-06 1.69828 0.555627 1.64782 
347 1 1.76172e-06 9.80232e-06 6.42912e-06 0.725717 1.20873 0.934247 
348 1 9.81473e-06 8.43884e-06 4.40666e-07 0.164323 1.27079 2.00089 
349 1 5.16732e-06 6.00705e-06 3.16555e-06 0.601723 0.778941 1.78637 
350 1 5.52627e-06 1.41048e-06 9.15575e-06 1.18359 0.200309 0.920661 
351 1 3.31918e-06 2.54939e-06 2.66188e-06 0.691523 0.160772 1.4412 
352 1 2.99591e-06 3.69319e-06 3.62045e-08 0.679767 1.43831 0.452079 
353 1 5.71198e-06 1.4641e-06 1.78319e-06 0.622883 0.703872 1.10775 
354 1 8.85707e-06 7.39237e-06 5.33592e-06 2.04621 0.902346 0.236891 
355 1 5.24547e-06 1.26881e-07 3.43962e-07 1.18806 0.723619 0.704273 
356 1 7.96405e-06 9.59579e-06 4.56301e-06 0.857323 0.761253 0.683293 
357 1 6.2421e-06 6.90039e-07 7.47216e-06 1.61573 0.303136 0.26288 
358 1 2.48444e-06 9.95266e-06 8.7495e-06 1.0166 1.40138 1.14625 
359 1 1.34973e-06 9.42709e-06 3.09999e-06 0.996088 0.553201 0.407161 
360 1 5.95263e-06 2.68938e-06 8.5937e-08 0.835076 0.418379 0.31492 
361 1 6.8516e-06 8.65802e-06 9.71345e-06 0.5707 0.532854 0.602551 
362 1 6.52577e-06 7.29801e-06 4.48501e-06 0.903012 0.862295 1.15556 
363 1 8.1505e-06 7.5139e-06 3.81427e-06 0.852615 0.955834 0.579698 
364 1 8.26483e-06 6.24065e-06 9.12378e-07 0.849585 0.658748 0.841271 
365 1 4.03616e-07 7.85791e-06 3.37342e-06 0.58004 1.59121 1.27317 
366 1 3.94047e-06 5.13157e-06 4.37064e-06 0.403888 1.17469 0.845384 
367 1 4.05716e-06 6.25551e-07 1.94665e-06 0.81216 1.10094 0.761564 
368 1 5.9586e-06 3.62926e-06 3.38377e-06 1.01025 0.639336 0.864385 
369 1 8.92018e-06 8.68663e-06 7.52756e-06 0.567697 0.633556 0.768313 
370 1 9.00361e-06 7.18434e-06 6.3613e-06 0.858141 0.445211 0.538687 
371 1 1.64712e-06 1.00898e-06 3.64793e-06 0.468051 1.20555 1.33928 
372 1 5.49513e-06 2.04212e-06 3.86108e-06 1.32057 0.753282 1.13221 
373 1 2.89933e-06 5.68541e-06 5.37039e-07 0.698435 1.24767 1.43657 
374 1 4.45481e-06 5.3575e-06 7.72788e-06 0.384897 1.61394 0.926923 
375 1 4.08401e-06 8.52241e-06 3.51375e-06 0.994441 0.87845 0.885371 
376 1 5.00884e-06 4.02948e-06 9.85491e-06 0.729897 0.941985 0.659338 
377 1 8.09044e-06 6.81558e-06 2.32281e-08 0.823717 1.26638 1.07471 
378 1 6.7078e-06 9.56683e-07 6.41146e-06 0.453902 1.08218 0.569535 
379 1 9.19181e-06 1.45749e-06 1.2932e-06 1.04821 0.982806 0.982266 
380 1 3.68499e-06 4.68117e-06 8.54089e-06 0.493704 0.785784 1.7353 
381 1 5.95547e-06 8.88794e-07 6.27217e-06 0.618707 0.927004 1.2697 
382 1 2.20911e-06 5.31545e-06 2.36167e-06 0.428449 0.987251 1.05778 
383 1 2.39677e-06 8.32694e-06 5.80113e-06 0.885339 0.769832 0.617283 
384 1 4.78312e-06 5.45474e-06 9.69108e-06 0.471062 1.17968 0.876583 
385 1 7.04995e-06 4.08905e-06 9.32301e-06 0.474452 0.486577 0.785846 
386 1 7.44994e-06 2.52927e-06 7.58332e-06 1.41958 0.791277 0.706227 
387 1 9.0366e-06 5.45665e-06 8.2906e-06 1.01036 0.687383 0.607345 
388 1 1.91826e-06 2.56409e-06 6.85821e-06 1.21721 1.04078 1.39451 
389 1 4.28556e-06 9.21309e-06 1.73445e-07 0.771885 0.83444 1.22149 
390 1 8.22259e-06 3.59585e-06 9.42237e-06 0.713404 0.680767 1.21028 
391 1 3.18089e-07 3.71677e-06 8.95749e-06 0.842194 0.731918 0.950576 
392 1 9.0671e-06 8.89804e-07 2.43304e-06 0.306676 1.05654 1.09887 
393 1 8.9182e-06 7.27626e-06 9.32183e-06 0.93516 0.702795 0.874532 
394 1 4.87622e-06 1.55347e-06 9.85816e-06 0.745751 1.09142 0.905986 
395 1 5.9654e-06 9.3656e-06 5.54275e-06 0.73397 1.16849 1.14687 
396 1 5.71507e-06 8.60349e-06 7.01136e-06 0.536132 1.04041 0.871189 
397 1 2.42987e-06 4.62184e-06 2.56762e-06 0.429965 1.15992 1.16408 
398 1 7.14226e-06 2.03804e-06 7.38968e-06 0.888307 1.0772 0.96579 
399 1 4.56026e-07 3.3134e-06 4.4609e-06 1.28204 0.676276 1.05155 
400 1 5.86581e-06 2.09309e-06 2.89898e-06 1.73829 1.11863 0.608552 
401 1 6.55539e-06 7.36426e-06 7.30269e-07 1.26036 1.15948 0.382809 
402 1 1.61566e-06 1.73441e-06 6.33789e-06 0.225264 1.19135 0.796364 
403 1 6.81585e-06 7.16161e-06 4.64923e-07 1.05138 0.771097 0.910773 
404 1 1.09766e-07 1.81329e-06 6.13456e-06 1.03087 0.917531 1.14568 
405 1 7.10733e-06 9.49728e-06 1.92821e-06 1.28917 0.504749 0.911671 
406 1 7.58485e-06 1.67002e-06 5.50971e-06 0.839699 1.38766 0.51742 
407 1 3.57579e-06 1.57201e-06 5.9014e-06 0.322511 0.5771 1.22179 
408 1 8.21628e-06 5.74989e-06 9.22754e-08 0.353312 0.43311 1.09043 
409 1 9.14792e-06 7.21105e-06 9.46229e-07 0.998769 0.819703 1.27831 
410 1 5.43125e-07 1.07509e-06 2.02797e-07 1.0851 0.954876 0.578898 
411 1 9.17838e-06 3.91484e-06 5.41372e-06 1.16766 1.44836 0.854959 
412 1 9.82976e-06 5.19475e-06 8.51309e-06 0.623777 0.980105 0.829326 
413 1 6.52999e-06 3.4924e-06 2.27588e-06 1.20716 1.08175 0.651225 
414 1 3.81585e-06 2.5914e-06 7.795e-06 1.14735 0.810887 0.239812 
415 1 5.63665e-07 4.87883e-06 5.69762e-07 1.1196 0.530954 1.63278 
416 1 8.09162e-07 8.36083e-06 4.01928e-06 1.26464 1.21376 1.22368 
417 1 9.85864e-06 1.88963e-06 1.52899e-06 0.705683 0.806728 1.84211 
418 1 4.71589e-06 7.6114e-06 4.20244e-07 0.368598 0.801251 1.63016 
419 1 5.46708e-06 8.1221e-06 7.87209e-07 1.3647 0.945683 0.396856 
420 1 9.55446e-06 9.44269e-06 1.24271e-06 0.671089 0.504448 0.956179 
421 1 2.43419e-07 1.71918e-06 2.37388e-06 0.442615 0.983087 0.287188 
422 1 5.27374e-06 8.1445e-06 5.39996e-06 1.01302 0.737191 0.730417 
423 1 5.8865e-06 7.62848e-06 2.53897e-06 0.943495 1.02348 1.41784 
424 1 4.94731e-07 4.11125e-07 6.08582e-06 1.16478 0.964144 1.3816 
425 1 3.66534e-06 1.46063e-06 8.89512e-06 0.663849 0.48483 0.782495 
426 1 3.58256e-06 3.68273e-07 6.00903e-06 0.880996 0.358338 1.3467 
427 1 1.42854e-06 7.36142e-06 6.01306e-06 0.668696 0.216044 0.894321 
428 1 5.35646e-06 8.02691e-06 3.29205e-06 0.344425 0.503871 1.11502 
429 1 9.8705e-06 9.41694e-06 2.90491e-06 0.59484 0.566762 1.39911 
430 1 5.40743e-06 8.1464e-06 5.80221e-06 0.87812 0.290727 0.683135 
431 1 7.82495e-06 9.19236e-06 3.47444e-06 1.15277 1.03742 1.16621 
432 1 9.96719e-06 9.88594e-06 8.74037e-08 0.829937 0.689144 0.544335 
433 1 1.80713e-06 5.38399e-06 7.73199e-06 0.689251 0.756737 1.16113 
434 1 4.60587e-07 8.25851e-06 9.96422e-06 1.12963 2.09549 0.530937 
435 1 6.65162e-06 1.21407e-06 2.71415e-06 0.88825 1.048 0.54867 
436 1 5.03015e-06 2.12255e-06 8.28935e-06 1.95685 0.921864 0.929919 
437 1 8.45521e-06 8.75402e-06 5.80097e-06 1.09017 0.755671 0.991917 
438 1 2.45491e-06 6.84719e-06 1.89711e-06 1.06161 1.38844 0.672912 